# epsilon and Z* of atoms 1
  14.80091955   0.00000000   0.00000000   0.00000000  14.80091955   0.00000000   0.00000000   0.00000000  14.80091955
   0.00000000   0.00000000   0.00000000   0.00000000   0.00000000   0.00000000   0.00000000   0.00000000   0.00000000
