 vasp.5.3.5 31Mar14 (build Feb 27 2016 10:18:07) complex                        
  
 executed on             LinuxIFC date 2017.09.21  20:46:28
 running on   40 total cores
 distrk:  each k-point on   40 cores,    1 groups
 distr:  one band on NCORES_PER_BAND=  10 cores,    4 groups


--------------------------------------------------------------------------------------------------------


 INCAR:
 POTCAR:   PAW_PBE Sr_sv 07Sep2000                
 POTCAR:   PAW_PBE Ti_sv 07Sep2000                
 POTCAR:   PAW_PBE Tc_pv 06Sep2000                
 POTCAR:   PAW_PBE O 08Apr2002                    
 POTCAR:   PAW_PBE Sr_sv 07Sep2000                
   VRHFIN =Sr: 4s4p5s                                                           
   LEXCH  = PS                                                                  
   EATOM  =   842.4562 eV,   61.9188 Ry                                         
                                                                                
   TITEL  = PAW_PBE Sr_sv 07Sep2000                                             
   LULTRA =        F    use ultrasoft PP ?                                      
   IUNSCR =        1    unscreen: 0-lin 1-nonlin 2-no                           
   RPACOR =    2.200    partial core radius                                     
   POMASS =   87.620; ZVAL   =   10.000    mass and valenz                      
   RCORE  =    2.500    outmost cutoff radius                                   
   RWIGS  =    4.040; RWIGS  =    2.138    wigner-seitz radius (au A)           
   ENMAX  =  229.282; ENMIN  =  171.961 eV                                      
   RCLOC  =    2.201    cutoff for local pot                                    
   LCOR   =        T    correct aug charges                                     
   LPAW   =        T    paw PP                                                  
   EAUG   =  366.804                                                            
   DEXC   =     .000                                                            
   RMAX   =    3.045    core radius for proj-oper                               
   RAUG   =    1.300    factor for augmentation sphere                          
   RDEP   =    2.562    radius for radial grids                                 
   QCUT   =   -4.105; QGAM   =    8.210    optimization parameters              
                                                                                
   Description                                                                  
     l     E      TYP  RCUT    TYP  RCUT                                        
     0   .000     23  2.480                                                     
     0   .000     23  2.480                                                     
     1   .000     23  2.500                                                     
     1   .000     23  2.500                                                     
     2   .000     23  2.500                                                     
     2   .000     23  2.500                                                     
  local pseudopotential read in
  partial core-charges read in
  atomic valenz-charges read in
  non local Contribution for L=           0  read in
    real space projection operators read in
  non local Contribution for L=           0  read in
    real space projection operators read in
  non local Contribution for L=           1  read in
    real space projection operators read in
  non local Contribution for L=           1  read in
    real space projection operators read in
  non local Contribution for L=           2  read in
    real space projection operators read in
  non local Contribution for L=           2  read in
    real space projection operators read in
    PAW grid and wavefunctions read in
 
   number of l-projection  operators is LMAX  =           6
   number of lm-projection operators is LMMAX =          18
 
 POTCAR:   PAW_PBE Ti_sv 07Sep2000                
   VRHFIN =Ti: 3p4s3d                                                           
   LEXCH  = PS                                                                  
   EATOM  =  1587.5048 eV,  116.6783 Ry                                         
                                                                                
   TITEL  = PAW_PBE Ti_sv 07Sep2000                                             
   LULTRA =        F    use ultrasoft PP ?                                      
   IUNSCR =        1    unscreen: 0-lin 1-nonlin 2-no                           
   RPACOR =    2.000    partial core radius                                     
   POMASS =   47.880; ZVAL   =   12.000    mass and valenz                      
   RCORE  =    2.300    outmost cutoff radius                                   
   RWIGS  =    2.300; RWIGS  =    1.217    wigner-seitz radius (au A)           
   ENMAX  =  274.574; ENMIN  =  205.930 eV                                      
   RCLOC  =    1.701    cutoff for local pot                                    
   LCOR   =        T    correct aug charges                                     
   LPAW   =        T    paw PP                                                  
   EAUG   =  482.848                                                            
   DEXC   =     .000                                                            
   RMAX   =    2.783    core radius for proj-oper                               
   RAUG   =    1.300    factor for augmentation sphere                          
   RDEP   =    2.381    radius for radial grids                                 
   QCUT   =   -4.492; QGAM   =    8.985    optimization parameters              
                                                                                
   Description                                                                  
     l     E      TYP  RCUT    TYP  RCUT                                        
     0   .000     23  1.800                                                     
     0   .000     23  2.300                                                     
     0   .000     23  1.800                                                     
     0   .000     23  2.300                                                     
     1   .000     23  2.300                                                     
     1  -.100     23  2.300                                                     
     2   .000     23  2.300                                                     
     2   .000     23  2.300                                                     
     3   .000      7   .000                                                     
  local pseudopotential read in
  partial core-charges read in
  atomic valenz-charges read in
  non local Contribution for L=           0  read in
    real space projection operators read in
  non local Contribution for L=           0  read in
    real space projection operators read in
  non local Contribution for L=           1  read in
    real space projection operators read in
  non local Contribution for L=           1  read in
    real space projection operators read in
  non local Contribution for L=           2  read in
    real space projection operators read in
  non local Contribution for L=           2  read in
    real space projection operators read in
    PAW grid and wavefunctions read in
 
   number of l-projection  operators is LMAX  =           6
   number of lm-projection operators is LMMAX =          18
 
 POTCAR:   PAW_PBE Tc_pv 06Sep2000                
   VRHFIN =Tc: 4p5s4d                                                           
   LEXCH  = PS                                                                  
   EATOM  =  1559.5964 eV,  114.6271 Ry                                         
                                                                                
   TITEL  = PAW_PBE Tc_pv 06Sep2000                                             
   LULTRA =        F    use ultrasoft PP ?                                      
   IUNSCR =        1    unscreen: 0-lin 1-nonlin 2-no                           
   RPACOR =    2.250    partial core radius                                     
   POMASS =   98.906; ZVAL   =   13.000    mass and valenz                      
   RCORE  =    2.500    outmost cutoff radius                                   
   RWIGS  =    2.690; RWIGS  =    1.423    wigner-seitz radius (au A)           
   ENMAX  =  228.699; ENMIN  =  171.524 eV                                      
   RCLOC  =    1.861    cutoff for local pot                                    
   LCOR   =        T    correct aug charges                                     
   LPAW   =        T    paw PP                                                  
   EAUG   =  384.541                                                            
   DEXC   =    -.007                                                            
   RMAX   =    3.049    core radius for proj-oper                               
   RAUG   =    1.300    factor for augmentation sphere                          
   RDEP   =    2.502    radius for radial grids                                 
   QCUT   =   -4.100; QGAM   =    8.200    optimization parameters              
                                                                                
   Description                                                                  
     l     E      TYP  RCUT    TYP  RCUT                                        
     1   .000     23  2.500                                                     
     1  -.400     23  2.500                                                     
     2   .000     23  2.500                                                     
     2  -.200     23  2.500                                                     
     0   .000     23  2.500                                                     
     0   .000     23  2.500                                                     
     3   .000      7   .000                                                     
  local pseudopotential read in
  partial core-charges read in
  atomic valenz-charges read in
  non local Contribution for L=           1  read in
    real space projection operators read in
  non local Contribution for L=           1  read in
    real space projection operators read in
  non local Contribution for L=           2  read in
    real space projection operators read in
  non local Contribution for L=           2  read in
    real space projection operators read in
  non local Contribution for L=           0  read in
    real space projection operators read in
  non local Contribution for L=           0  read in
    real space projection operators read in
    PAW grid and wavefunctions read in
 
   number of l-projection  operators is LMAX  =           6
   number of lm-projection operators is LMMAX =          18
 
 POTCAR:   PAW_PBE O 08Apr2002                    
   VRHFIN =O: s2p4                                                              
   LEXCH  = PS                                                                  
   EATOM  =   432.3788 eV,   31.7789 Ry                                         
                                                                                
   TITEL  = PAW_PBE O 08Apr2002                                                 
   LULTRA =        F    use ultrasoft PP ?                                      
   IUNSCR =        0    unscreen: 0-lin 1-nonlin 2-no                           
   RPACOR =     .000    partial core radius                                     
   POMASS =   16.000; ZVAL   =    6.000    mass and valenz                      
   RCORE  =    1.520    outmost cutoff radius                                   
   RWIGS  =    1.550; RWIGS  =     .820    wigner-seitz radius (au A)           
   ENMAX  =  400.000; ENMIN  =  300.000 eV                                      
   ICORE  =        2    local potential                                         
   LCOR   =        T    correct aug charges                                     
   LPAW   =        T    paw PP                                                  
   EAUG   =  605.392                                                            
   DEXC   =     .000                                                            
   RMAX   =    2.264    core radius for proj-oper                               
   RAUG   =    1.300    factor for augmentation sphere                          
   RDEP   =    1.550    radius for radial grids                                 
   QCUT   =   -5.520; QGAM   =   11.041    optimization parameters              
                                                                                
   Description                                                                  
     l     E      TYP  RCUT    TYP  RCUT                                        
     0   .000     23  1.200                                                     
     0  -.700     23  1.200                                                     
     1   .000     23  1.520                                                     
     1   .600     23  1.520                                                     
     2   .000      7  1.500                                                     
  local pseudopotential read in
  atomic valenz-charges read in
  non local Contribution for L=           0  read in
    real space projection operators read in
  non local Contribution for L=           0  read in
    real space projection operators read in
  non local Contribution for L=           1  read in
    real space projection operators read in
  non local Contribution for L=           1  read in
    real space projection operators read in
    PAW grid and wavefunctions read in
 
   number of l-projection  operators is LMAX  =           4
   number of lm-projection operators is LMMAX =           8
 
 Optimization of the real space projectors (new method)

 maximal supplied QI-value         = 15.12
 optimisation between [QCUT,QGAM] = [ 10.73, 21.62] = [ 32.26,130.87] Ry 
 Optimized for a Real-space Cutoff    1.65 Angstroem

   l    n(q)    QCUT    max X(q) W(low)/X(q) W(high)/X(q)  e(spline) 
   0     11    10.734     6.584    0.15E-04    0.59E-07    0.13E-07
   0     11    10.734    11.383    0.40E-04    0.73E-05    0.60E-07
   1     10    10.734     3.802    0.58E-06    0.41E-05    0.26E-07
   1     10    10.734    39.081    0.59E-04    0.98E-04    0.25E-06
   2     10    10.734     4.950    0.14E-04    0.12E-04    0.68E-07
   2     10    10.734    88.754    0.11E-03    0.28E-04    0.39E-06
 Optimization of the real space projectors (new method)

 maximal supplied QI-value         = 16.25
 optimisation between [QCUT,QGAM] = [ 10.73, 21.61] = [ 32.22,130.83] Ry 
 Optimized for a Real-space Cutoff    1.46 Angstroem

   l    n(q)    QCUT    max X(q) W(low)/X(q) W(high)/X(q)  e(spline) 
   0      9    10.726     4.146    0.85E-05    0.15E-05    0.11E-07
   0      9    10.726    13.578    0.37E-04    0.69E-05    0.43E-07
   1      9    10.726     4.841    0.22E-04    0.12E-04    0.25E-07
   1      9    10.726     4.867    0.20E-03    0.10E-03    0.21E-06
   2      9    10.726     3.894    0.15E-04    0.26E-04    0.60E-07
   2      9    10.726    45.626    0.16E-03    0.49E-03    0.32E-06
 Optimization of the real space projectors (new method)

 maximal supplied QI-value         = 15.12
 optimisation between [QCUT,QGAM] = [ 10.73, 21.62] = [ 32.26,130.87] Ry 
 Optimized for a Real-space Cutoff    1.65 Angstroem

   l    n(q)    QCUT    max X(q) W(low)/X(q) W(high)/X(q)  e(spline) 
   1     10    10.734     5.603    0.33E-05    0.27E-05    0.27E-07
   1     10    10.734     5.910    0.73E-04    0.52E-04    0.15E-06
   2     10    10.734     3.727    0.12E-04    0.21E-04    0.52E-07
   2     10    10.734    28.904    0.12E-03    0.16E-03    0.26E-06
   0     11    10.734    25.563    0.21E-04    0.15E-05    0.23E-07
   0     11    10.734    74.991    0.27E-04    0.11E-04    0.26E-06
 Optimization of the real space projectors (new method)

 maximal supplied QI-value         = 24.76
 optimisation between [QCUT,QGAM] = [ 10.64, 21.54] = [ 31.73,129.89] Ry 
 Optimized for a Real-space Cutoff    1.34 Angstroem

   l    n(q)    QCUT    max X(q) W(low)/X(q) W(high)/X(q)  e(spline) 
   0      9    10.645     4.192    0.39E-04    0.27E-04    0.82E-07
   0      9    10.645     8.473    0.18E-03    0.22E-03    0.25E-06
   1      8    10.645     2.474    0.49E-04    0.70E-04    0.49E-07
   1      8    10.645     3.912    0.18E-03    0.30E-03    0.21E-06
 PAW_PBE Sr_sv 07Sep2000                :
 energy of atom  1       EATOM= -842.4562
 kinetic energy error for atom=    0.0019 (will be added to EATOM!!)
 PAW_PBE Ti_sv 07Sep2000                :
 energy of atom  2       EATOM=-1587.5048
 kinetic energy error for atom=    0.0068 (will be added to EATOM!!)
 PAW_PBE Tc_pv 06Sep2000                :
 energy of atom  3       EATOM=-1559.5964
 kinetic energy error for atom=    0.0043 (will be added to EATOM!!)
 PAW_PBE O 08Apr2002                    :
 energy of atom  4       EATOM= -432.3788
 kinetic energy error for atom=    0.0389 (will be added to EATOM!!)
 
 
 POSCAR: FM-3M-STTO                              
  positions in direct lattice
  velocities in cartesian coordinates
 exchange correlation table for  LEXCH =       14
   RHO(1)=    0.500       N(1)  =     2000
   RHO(2)=  100.500       N(2)  =     4000
 


--------------------------------------------------------------------------------------------------------


 ion  position               nearest neighbor table
   1  0.000  0.000  0.000-  19 2.77  22 2.77  25 2.77  28 2.77  17 2.77  23 2.77  30 2.77  33 2.77
                            29 2.77  18 2.77  21 2.77  35 2.77  13 3.39  14 3.39  15 3.39  16 3.39
   2  0.500  0.000  1.000-  18 2.77  21 2.77  30 2.77  33 2.77  32 2.77  38 2.77  20 2.77  26 2.77
                            25 2.77  22 2.77  19 2.77  28 2.77  11 3.39  12 3.39  15 3.39  16 3.39
   3  0.000  0.500  0.000-  29 2.77  35 2.77  17 2.77  23 2.77  24 2.77  27 2.77  36 2.77  39 2.77
                            19 2.77  28 2.77  22 2.77  25 2.77   9 3.39  10 3.39  13 3.39  14 3.39
   4  0.500  0.500  0.000-  19 2.77  22 2.77  25 2.77  28 2.77  26 2.77  20 2.77  36 2.77  39 2.77
                            32 2.77  27 2.77  38 2.77  24 2.77  13 3.39  14 3.39  15 3.39  16 3.39
   5  0.000  0.000  0.500-  31 2.77  34 2.77  37 2.77  40 2.77  33 2.77  23 2.77  30 2.77  17 2.77
                            21 2.77  35 2.77  18 2.77  29 2.77  13 3.39  14 3.39  15 3.39  16 3.39
   6  0.500  0.000  0.500-  32 2.77  38 2.77  20 2.77  26 2.77  21 2.77  18 2.77  33 2.77  30 2.77
                            31 2.77  40 2.77  34 2.77  37 2.77   9 3.39  10 3.39  13 3.39  14 3.39
   7  0.000  0.500  0.500-  24 2.77  27 2.77  36 2.77  39 2.77  29 2.77  35 2.77  17 2.77  23 2.77
                            37 2.77  34 2.77  31 2.77  40 2.77  11 3.39  12 3.39  15 3.39  16 3.39
   8  0.500  0.500  0.500-  31 2.77  34 2.77  37 2.77  40 2.77  36 2.77  20 2.77  39 2.77  26 2.77
                            32 2.77  38 2.77  27 2.77  24 2.77  13 3.39  14 3.39  15 3.39  16 3.39
   9  0.250  0.250  0.250-  17 1.94  20 1.94  18 1.94  24 1.94  19 1.94  31 1.94   3 3.39   6 3.39
                             1 3.39   8 3.39   4 3.39   5 3.39   7 3.39   2 3.39
  10  0.750  0.750  0.250-  23 1.94  26 1.94  21 1.94  27 1.94  28 1.94  40 1.94   3 3.39   6 3.39
                             1 3.39   8 3.39   4 3.39   5 3.39   7 3.39   2 3.39
  11  0.750  0.250  0.750-  33 1.94  39 1.94  29 1.94  32 1.94  34 1.94  22 1.94   2 3.39   7 3.39
                             1 3.39   8 3.39   4 3.39   5 3.39   3 3.39   6 3.39
  12  0.250  0.750  0.750-  30 1.94  36 1.94  35 1.94  38 1.94  37 1.94  25 1.94   2 3.39   7 3.39
                             1 3.39   8 3.39   4 3.39   5 3.39   3 3.39   6 3.39
  13  0.750  0.250  0.250-  21 1.97  27 1.97  17 1.97  20 1.97  22 1.97  34 1.97   3 3.39   6 3.39
                             1 3.39   8 3.39   4 3.39   5 3.39   7 3.39   2 3.39
  14  0.250  0.750  0.250-  18 1.97  24 1.97  23 1.97  26 1.97  25 1.97  37 1.97   3 3.39   6 3.39
                             1 3.39   8 3.39   4 3.39   5 3.39   7 3.39   2 3.39
  15  0.250  0.250  0.750-  29 1.97  32 1.97  30 1.97  36 1.97  19 1.97  31 1.97   2 3.39   7 3.39
                             1 3.39   8 3.39   4 3.39   5 3.39   3 3.39   6 3.39
  16  0.750  0.750  0.750-  35 1.97  38 1.97  33 1.97  39 1.97  28 1.97  40 1.97   2 3.39   7 3.39
                             1 3.39   8 3.39   4 3.39   5 3.39   3 3.39   6 3.39
  17  0.002  0.250  0.250-   9 1.94  13 1.97   3 2.77   7 2.77   1 2.77   5 2.77
  18  0.250  0.002  0.250-   9 1.94  14 1.97   2 2.77   6 2.77   1 2.77   5 2.77
  19  0.250  0.250  0.002-   9 1.94  15 1.97   3 2.77   1 2.77   4 2.77   2 2.77
  20  0.498  0.250  0.250-   9 1.94  13 1.97   6 2.77   2 2.77   8 2.77   4 2.77
  21  0.750  0.998  0.250-  10 1.94  13 1.97   2 2.77   6 2.77   1 2.77   5 2.77
  22  0.750  0.250  0.998-  11 1.94  13 1.97   2 2.77   1 2.77   4 2.77   3 2.77
  23  0.998  0.750  0.250-  10 1.94  14 1.97   3 2.77   7 2.77   1 2.77   5 2.77
  24  0.250  0.498  0.250-   9 1.94  14 1.97   7 2.77   3 2.77   8 2.77   4 2.77
  25  0.250  0.750  0.998-  12 1.94  14 1.97   2 2.77   1 2.77   4 2.77   3 2.77
  26  0.502  0.750  0.250-  10 1.94  14 1.97   6 2.77   2 2.77   8 2.77   4 2.77
  27  0.750  0.502  0.250-  10 1.94  13 1.97   7 2.77   3 2.77   8 2.77   4 2.77
  28  0.750  0.750  0.002-  10 1.94  16 1.97   3 2.77   1 2.77   4 2.77   2 2.77
  29  0.998  0.250  0.750-  11 1.94  15 1.97   3 2.77   7 2.77   1 2.77   5 2.77
  30  0.250  0.998  0.750-  12 1.94  15 1.97   2 2.77   6 2.77   1 2.77   5 2.77
  31  0.250  0.250  0.498-   9 1.94  15 1.97   6 2.77   8 2.77   5 2.77   7 2.77
  32  0.502  0.250  0.750-  11 1.94  15 1.97   6 2.77   2 2.77   8 2.77   4 2.77
  33  0.750  0.002  0.750-  11 1.94  16 1.97   2 2.77   6 2.77   1 2.77   5 2.77
  34  0.750  0.250  0.502-  11 1.94  13 1.97   7 2.77   8 2.77   5 2.77   6 2.77
  35  0.002  0.750  0.750-  12 1.94  16 1.97   3 2.77   7 2.77   1 2.77   5 2.77
  36  0.250  0.502  0.750-  12 1.94  15 1.97   7 2.77   3 2.77   8 2.77   4 2.77
  37  0.250  0.750  0.502-  12 1.94  14 1.97   7 2.77   8 2.77   5 2.77   6 2.77
  38  0.498  0.750  0.750-  12 1.94  16 1.97   6 2.77   2 2.77   8 2.77   4 2.77
  39  0.750  0.498  0.750-  11 1.94  16 1.97   7 2.77   3 2.77   8 2.77   4 2.77
  40  0.750  0.750  0.498-  10 1.94  16 1.97   6 2.77   8 2.77   5 2.77   7 2.77
 

IMPORTANT INFORMATION: All symmetrisations will be switched off!
NOSYMM: (Re-)initialisation of all symmetry stuff for point group C_1.

 
 
 KPOINTS: Monkhorst Pack                          

Automatic generation of k-mesh.
Space group operators:
 irot       det(A)        alpha          n_x          n_y          n_z        tau_x        tau_y        tau_z
    1     1.000000     0.000000     1.000000     0.000000     0.000000     0.000000     0.000000     0.000000
 
 Subroutine IBZKPT returns following result:
 ===========================================
 
 Found    125 irreducible k-points:
 
 Following reciprocal coordinates:
            Coordinates               Weight
  0.000000  0.000000  0.000000      1.000000
  0.200000  0.000000  0.000000      1.000000
  0.400000  0.000000  0.000000      1.000000
 -0.400000  0.000000  0.000000      1.000000
 -0.200000  0.000000  0.000000      1.000000
  0.000000  0.200000  0.000000      1.000000
  0.200000  0.200000  0.000000      1.000000
  0.400000  0.200000  0.000000      1.000000
 -0.400000  0.200000  0.000000      1.000000
 -0.200000  0.200000  0.000000      1.000000
  0.000000  0.400000  0.000000      1.000000
  0.200000  0.400000  0.000000      1.000000
  0.400000  0.400000  0.000000      1.000000
 -0.400000  0.400000  0.000000      1.000000
 -0.200000  0.400000  0.000000      1.000000
  0.000000 -0.400000  0.000000      1.000000
  0.200000 -0.400000  0.000000      1.000000
  0.400000 -0.400000  0.000000      1.000000
 -0.400000 -0.400000  0.000000      1.000000
 -0.200000 -0.400000  0.000000      1.000000
  0.000000 -0.200000  0.000000      1.000000
  0.200000 -0.200000  0.000000      1.000000
  0.400000 -0.200000  0.000000      1.000000
 -0.400000 -0.200000  0.000000      1.000000
 -0.200000 -0.200000  0.000000      1.000000
  0.000000  0.000000  0.200000      1.000000
  0.200000  0.000000  0.200000      1.000000
  0.400000  0.000000  0.200000      1.000000
 -0.400000  0.000000  0.200000      1.000000
 -0.200000  0.000000  0.200000      1.000000
  0.000000  0.200000  0.200000      1.000000
  0.200000  0.200000  0.200000      1.000000
  0.400000  0.200000  0.200000      1.000000
 -0.400000  0.200000  0.200000      1.000000
 -0.200000  0.200000  0.200000      1.000000
  0.000000  0.400000  0.200000      1.000000
  0.200000  0.400000  0.200000      1.000000
  0.400000  0.400000  0.200000      1.000000
 -0.400000  0.400000  0.200000      1.000000
 -0.200000  0.400000  0.200000      1.000000
  0.000000 -0.400000  0.200000      1.000000
  0.200000 -0.400000  0.200000      1.000000
  0.400000 -0.400000  0.200000      1.000000
 -0.400000 -0.400000  0.200000      1.000000
 -0.200000 -0.400000  0.200000      1.000000
  0.000000 -0.200000  0.200000      1.000000
  0.200000 -0.200000  0.200000      1.000000
  0.400000 -0.200000  0.200000      1.000000
 -0.400000 -0.200000  0.200000      1.000000
 -0.200000 -0.200000  0.200000      1.000000
  0.000000  0.000000  0.400000      1.000000
  0.200000  0.000000  0.400000      1.000000
  0.400000  0.000000  0.400000      1.000000
 -0.400000  0.000000  0.400000      1.000000
 -0.200000  0.000000  0.400000      1.000000
  0.000000  0.200000  0.400000      1.000000
  0.200000  0.200000  0.400000      1.000000
  0.400000  0.200000  0.400000      1.000000
 -0.400000  0.200000  0.400000      1.000000
 -0.200000  0.200000  0.400000      1.000000
  0.000000  0.400000  0.400000      1.000000
  0.200000  0.400000  0.400000      1.000000
  0.400000  0.400000  0.400000      1.000000
 -0.400000  0.400000  0.400000      1.000000
 -0.200000  0.400000  0.400000      1.000000
  0.000000 -0.400000  0.400000      1.000000
  0.200000 -0.400000  0.400000      1.000000
  0.400000 -0.400000  0.400000      1.000000
 -0.400000 -0.400000  0.400000      1.000000
 -0.200000 -0.400000  0.400000      1.000000
  0.000000 -0.200000  0.400000      1.000000
  0.200000 -0.200000  0.400000      1.000000
  0.400000 -0.200000  0.400000      1.000000
 -0.400000 -0.200000  0.400000      1.000000
 -0.200000 -0.200000  0.400000      1.000000
  0.000000  0.000000 -0.400000      1.000000
  0.200000  0.000000 -0.400000      1.000000
  0.400000  0.000000 -0.400000      1.000000
 -0.400000  0.000000 -0.400000      1.000000
 -0.200000  0.000000 -0.400000      1.000000
  0.000000  0.200000 -0.400000      1.000000
  0.200000  0.200000 -0.400000      1.000000
  0.400000  0.200000 -0.400000      1.000000
 -0.400000  0.200000 -0.400000      1.000000
 -0.200000  0.200000 -0.400000      1.000000
  0.000000  0.400000 -0.400000      1.000000
  0.200000  0.400000 -0.400000      1.000000
  0.400000  0.400000 -0.400000      1.000000
 -0.400000  0.400000 -0.400000      1.000000
 -0.200000  0.400000 -0.400000      1.000000
  0.000000 -0.400000 -0.400000      1.000000
  0.200000 -0.400000 -0.400000      1.000000
  0.400000 -0.400000 -0.400000      1.000000
 -0.400000 -0.400000 -0.400000      1.000000
 -0.200000 -0.400000 -0.400000      1.000000
  0.000000 -0.200000 -0.400000      1.000000
  0.200000 -0.200000 -0.400000      1.000000
  0.400000 -0.200000 -0.400000      1.000000
 -0.400000 -0.200000 -0.400000      1.000000
 -0.200000 -0.200000 -0.400000      1.000000
  0.000000  0.000000 -0.200000      1.000000
  0.200000  0.000000 -0.200000      1.000000
  0.400000  0.000000 -0.200000      1.000000
 -0.400000  0.000000 -0.200000      1.000000
 -0.200000  0.000000 -0.200000      1.000000
  0.000000  0.200000 -0.200000      1.000000
  0.200000  0.200000 -0.200000      1.000000
  0.400000  0.200000 -0.200000      1.000000
 -0.400000  0.200000 -0.200000      1.000000
 -0.200000  0.200000 -0.200000      1.000000
  0.000000  0.400000 -0.200000      1.000000
  0.200000  0.400000 -0.200000      1.000000
  0.400000  0.400000 -0.200000      1.000000
 -0.400000  0.400000 -0.200000      1.000000
 -0.200000  0.400000 -0.200000      1.000000
  0.000000 -0.400000 -0.200000      1.000000
  0.200000 -0.400000 -0.200000      1.000000
  0.400000 -0.400000 -0.200000      1.000000
 -0.400000 -0.400000 -0.200000      1.000000
 -0.200000 -0.400000 -0.200000      1.000000
  0.000000 -0.200000 -0.200000      1.000000
  0.200000 -0.200000 -0.200000      1.000000
  0.400000 -0.200000 -0.200000      1.000000
 -0.400000 -0.200000 -0.200000      1.000000
 -0.200000 -0.200000 -0.200000      1.000000
 
 Following cartesian coordinates:
            Coordinates               Weight
  0.000000  0.000000  0.000000      1.000000
  0.099667 -0.000000  0.000000      1.000000
  0.199334 -0.000000  0.000000      1.000000
 -0.199334  0.000000  0.000000      1.000000
 -0.099667  0.000000  0.000000      1.000000
  0.000000  0.099667  0.000000      1.000000
  0.099667  0.099667  0.000000      1.000000
  0.199334  0.099667  0.000000      1.000000
 -0.199334  0.099667  0.000000      1.000000
 -0.099667  0.099667  0.000000      1.000000
  0.000000  0.199334  0.000000      1.000000
  0.099667  0.199334  0.000000      1.000000
  0.199334  0.199334  0.000000      1.000000
 -0.199334  0.199334  0.000000      1.000000
 -0.099667  0.199334  0.000000      1.000000
 -0.000000 -0.199334  0.000000      1.000000
  0.099667 -0.199334  0.000000      1.000000
  0.199334 -0.199334  0.000000      1.000000
 -0.199334 -0.199334  0.000000      1.000000
 -0.099667 -0.199334  0.000000      1.000000
 -0.000000 -0.099667  0.000000      1.000000
  0.099667 -0.099667  0.000000      1.000000
  0.199334 -0.099667  0.000000      1.000000
 -0.199334 -0.099667  0.000000      1.000000
 -0.099667 -0.099667  0.000000      1.000000
  0.000000  0.000000  0.099657      1.000000
  0.099667 -0.000000  0.099657      1.000000
  0.199334 -0.000000  0.099657      1.000000
 -0.199334  0.000000  0.099657      1.000000
 -0.099667  0.000000  0.099657      1.000000
  0.000000  0.099667  0.099657      1.000000
  0.099667  0.099667  0.099657      1.000000
  0.199334  0.099667  0.099657      1.000000
 -0.199334  0.099667  0.099657      1.000000
 -0.099667  0.099667  0.099657      1.000000
  0.000000  0.199334  0.099657      1.000000
  0.099667  0.199334  0.099657      1.000000
  0.199334  0.199334  0.099657      1.000000
 -0.199334  0.199334  0.099657      1.000000
 -0.099667  0.199334  0.099657      1.000000
 -0.000000 -0.199334  0.099657      1.000000
  0.099667 -0.199334  0.099657      1.000000
  0.199334 -0.199334  0.099657      1.000000
 -0.199334 -0.199334  0.099657      1.000000
 -0.099667 -0.199334  0.099657      1.000000
 -0.000000 -0.099667  0.099657      1.000000
  0.099667 -0.099667  0.099657      1.000000
  0.199334 -0.099667  0.099657      1.000000
 -0.199334 -0.099667  0.099657      1.000000
 -0.099667 -0.099667  0.099657      1.000000
  0.000000  0.000000  0.199315      1.000000
  0.099667 -0.000000  0.199315      1.000000
  0.199334 -0.000000  0.199315      1.000000
 -0.199334  0.000000  0.199315      1.000000
 -0.099667  0.000000  0.199315      1.000000
  0.000000  0.099667  0.199315      1.000000
  0.099667  0.099667  0.199315      1.000000
  0.199334  0.099667  0.199315      1.000000
 -0.199334  0.099667  0.199315      1.000000
 -0.099667  0.099667  0.199315      1.000000
  0.000000  0.199334  0.199315      1.000000
  0.099667  0.199334  0.199315      1.000000
  0.199334  0.199334  0.199315      1.000000
 -0.199334  0.199334  0.199315      1.000000
 -0.099667  0.199334  0.199315      1.000000
 -0.000000 -0.199334  0.199315      1.000000
  0.099667 -0.199334  0.199315      1.000000
  0.199334 -0.199334  0.199315      1.000000
 -0.199334 -0.199334  0.199315      1.000000
 -0.099667 -0.199334  0.199315      1.000000
 -0.000000 -0.099667  0.199315      1.000000
  0.099667 -0.099667  0.199315      1.000000
  0.199334 -0.099667  0.199315      1.000000
 -0.199334 -0.099667  0.199315      1.000000
 -0.099667 -0.099667  0.199315      1.000000
  0.000000  0.000000 -0.199315      1.000000
  0.099667 -0.000000 -0.199315      1.000000
  0.199334 -0.000000 -0.199315      1.000000
 -0.199334  0.000000 -0.199315      1.000000
 -0.099667  0.000000 -0.199315      1.000000
  0.000000  0.099667 -0.199315      1.000000
  0.099667  0.099667 -0.199315      1.000000
  0.199334  0.099667 -0.199315      1.000000
 -0.199334  0.099667 -0.199315      1.000000
 -0.099667  0.099667 -0.199315      1.000000
  0.000000  0.199334 -0.199315      1.000000
  0.099667  0.199334 -0.199315      1.000000
  0.199334  0.199334 -0.199315      1.000000
 -0.199334  0.199334 -0.199315      1.000000
 -0.099667  0.199334 -0.199315      1.000000
 -0.000000 -0.199334 -0.199315      1.000000
  0.099667 -0.199334 -0.199315      1.000000
  0.199334 -0.199334 -0.199315      1.000000
 -0.199334 -0.199334 -0.199315      1.000000
 -0.099667 -0.199334 -0.199315      1.000000
 -0.000000 -0.099667 -0.199315      1.000000
  0.099667 -0.099667 -0.199315      1.000000
  0.199334 -0.099667 -0.199315      1.000000
 -0.199334 -0.099667 -0.199315      1.000000
 -0.099667 -0.099667 -0.199315      1.000000
  0.000000  0.000000 -0.099657      1.000000
  0.099667 -0.000000 -0.099657      1.000000
  0.199334 -0.000000 -0.099657      1.000000
 -0.199334  0.000000 -0.099657      1.000000
 -0.099667  0.000000 -0.099657      1.000000
  0.000000  0.099667 -0.099657      1.000000
  0.099667  0.099667 -0.099657      1.000000
  0.199334  0.099667 -0.099657      1.000000
 -0.199334  0.099667 -0.099657      1.000000
 -0.099667  0.099667 -0.099657      1.000000
  0.000000  0.199334 -0.099657      1.000000
  0.099667  0.199334 -0.099657      1.000000
  0.199334  0.199334 -0.099657      1.000000
 -0.199334  0.199334 -0.099657      1.000000
 -0.099667  0.199334 -0.099657      1.000000
 -0.000000 -0.199334 -0.099657      1.000000
  0.099667 -0.199334 -0.099657      1.000000
  0.199334 -0.199334 -0.099657      1.000000
 -0.199334 -0.199334 -0.099657      1.000000
 -0.099667 -0.199334 -0.099657      1.000000
 -0.000000 -0.099667 -0.099657      1.000000
  0.099667 -0.099667 -0.099657      1.000000
  0.199334 -0.099667 -0.099657      1.000000
 -0.199334 -0.099667 -0.099657      1.000000
 -0.099667 -0.099667 -0.099657      1.000000
 
 TETIRR: Found    750 inequivalent tetrahedra from      750


--------------------------------------------------------------------------------------------------------




 Dimension of arrays:
   k-points           NKPTS =    125   k-points in BZ     NKDIM =    125   number of bands    NBANDS=    388
   number of dos      NEDOS =    301   number of ions     NIONS =     40
   non local maximal  LDIM  =      6   non local SUM 2l+1 LMDIM =     18
   total plane-waves  NPLWV = 157464
   max r-space proj   IRMAX =   6193   max aug-charges    IRDMAX=  19384
   dimension x,y,z NGX =    54 NGY =   54 NGZ =   54
   dimension x,y,z NGXF=   108 NGYF=  108 NGZF=  108
   support grid    NGXF=   108 NGYF=  108 NGZF=  108
   ions per type =               8   4   4  24
 NGX,Y,Z   is equivalent  to a cutoff of  11.46, 11.46, 11.46 a.u.
 NGXF,Y,Z  is equivalent  to a cutoff of  22.91, 22.91, 22.91 a.u.


 I would recommend the setting:
   dimension x,y,z NGX =    54 NGY =   54 NGZ =   54
 SYSTEM =  FM-3M         name of System            
 POSCAR =  FM-3M-STTO                              

 Startparameter for this run:
   NWRITE =      2    write-flag & timer
   PREC   = accura    normal or accurate (medium, high low for compatibility)
   ISTART =      0    job   : 0-new  1-cont  2-samecut
   ICHARG =      2    charge: 1-file 2-atom 10-const
   ISPIN  =      1    spin polarized calculation?
   LNONCOLLINEAR =      T non collinear calculations
   LSORBIT =      T    spin-orbit coupling
   INIWAV =      1    electr: 0-lowe 1-rand  2-diag
   LASPH  =      F    aspherical Exc in radial PAW
   METAGGA=      F    non-selfconsistent MetaGGA calc.

 Electronic Relaxation 1
   ENCUT  =  450.0 eV  33.07 Ry    5.75 a.u.  13.55 13.55 13.56*2*pi/ulx,y,z
   ENINI  =  450.0     initial cutoff
   ENAUG  =  605.4 eV  augmentation charge cutoff
   NELM   =    130;   NELMIN=  5; NELMDL= -5     # of ELM steps 
   EDIFF  = 0.1E-04   stopping-criterion for ELM
   LREAL  =      T    real-space projection
   NLSPLINE    = F    spline interpolate recip. space projectors
   LCOMPAT=      F    compatible to vasp.4.4
   GGA_COMPAT  = T    GGA compatible to vasp.4.4-vasp.4.6
   LMAXPAW     = -100 max onsite density
   LMAXMIX     =    4 max onsite mixed and CHGCAR
   VOSKOWN=      0    Vosko Wilk Nusair interpolation
   ROPT   =   -0.00025  -0.00025  -0.00025  -0.00025
 Ionic relaxation
   EDIFFG = -.1E-01   stopping-criterion for IOM
   NSW    =      0    number of steps for IOM
   NBLOCK =      1;   KBLOCK =      1    inner block; outer block 
   IBRION =     -1    ionic relax: 0-MD 1-quasi-New 2-CG
   NFREE  =      0    steps in history (QN), initial steepest desc. (CG)
   ISIF   =      1    stress and relaxation
   IWAVPR =     10    prediction:  0-non 1-charg 2-wave 3-comb
   ISYM   =      0    0-nonsym 1-usesym 2-fastsym
   LCORR  =      T    Harris-Foulkes like correction to forces

   POTIM  = 0.5000    time-step for ionic-motion
   TEIN   =    0.0    initial temperature
   TEBEG  =    0.0;   TEEND  =   0.0 temperature during run
   SMASS  =  -3.00    Nose mass-parameter (am)
   estimated Nose-frequenzy (Omega)   =  0.10E-29 period in steps =****** mass=  -0.140E-26a.u.
   SCALEE = 1.0000    scale energy and forces
   NPACO  =    256;   APACO  = 16.0  distance and # of slots for P.C.
   PSTRESS=    0.0 pullay stress

  Mass of Ions in am
   POMASS =  87.62 47.88 98.91 16.00
  Ionic Valenz
   ZVAL   =  10.00 12.00 13.00  6.00
  Atomic Wigner-Seitz radii
   RWIGS  =  -1.00 -1.00 -1.00 -1.00
  virtual crystal weights 
   VCA    =   1.00  1.00  1.00  1.00
   NELECT =     324.0000    total number of electrons
   NUPDOWN=      -1.0000    fix difference up-down

 DOS related values:
   EMIN   = -14.00;   EMAX   = 14.00  energy-range for DOS
   EFERMI =   0.00
   ISMEAR =    -5;   SIGMA  =   0.20  broadening in eV -4-tet -1-fermi 0-gaus

 Electronic relaxation 2 (details)
   IALGO  =     38    algorithm
   LDIAG  =      T    sub-space diagonalisation (order eigenvalues)
   LSUBROT=      F    optimize rotation matrix (better conditioning)
   TURBO    =      0    0=normal 1=particle mesh
   IRESTART =      0    0=no restart 2=restart with 2 vectors
   NREBOOT  =      0    no. of reboots
   NMIN     =      0    reboot dimension
   EREF     =   0.00    reference energy to select bands
   IMIX   =      4    mixing-type and parameters
     AMIX     =   0.40;   BMIX     =  1.00
     AMIX_MAG =   1.60;   BMIX_MAG =  1.00
     AMIN     =   0.10
     WC   =   100.;   INIMIX=   1;  MIXPRE=   1;  MAXMIX= -45

 Intra band minimization:
   WEIMIN = 0.0000     energy-eigenvalue tresh-hold
   EBREAK =  0.64E-08  absolut break condition
   DEPER  =   0.30     relativ break condition  

   TIME   =   0.40     timestep for ELM

  volume/ion in A,a.u.               =      12.03        81.19
  Fermi-wavevector in a.u.,A,eV,Ry     =   1.434861  2.711493 28.012013  2.058825
  Thomas-Fermi vector in A             =   2.554223
 
 Write flags
   LWAVE  =      F    write WAVECAR
   LCHARG =      F    write CHGCAR
   LVTOT  =      F    write LOCPOT, total local potential
   LVHAR  =      F    write LOCPOT, Hartree potential only
   LELF   =      F    write electronic localiz. function (ELF)
   LORBIT =     11    0 simple, 1 ext, 2 COOP (PROOUT)


 Dipole corrections
   LMONO  =      F    monopole corrections only (constant potential shift)
   LDIPOL =      F    correct potential (dipole corrections)
   IDIPOL =      0    1-x, 2-y, 3-z, 4-all directions 
   EPSILON=  1.0000000 bulk dielectric constant

 Exchange correlation treatment:
   GGA     =    PS    GGA type
   LEXCH   =    14    internal setting for exchange type
   VOSKOWN=      0    Vosko Wilk Nusair interpolation
   LHFCALC =     F    Hartree Fock is set to
   LHFONE  =     F    Hartree Fock one center treatment
   AEXX    =    0.0000 exact exchange contribution

 Linear response parameters
   LEPSILON=     F    determine dielectric tensor
   LRPA    =     F    only Hartree local field effects (RPA)
   LNABLA  =     F    use nabla operator in PAW spheres
   LVEL    =     F    velocity operator in full k-point grid
   LINTERFAST=   F  fast interpolation
   KINTER  =     0    interpolate to denser k-point grid
   CSHIFT  =0.1000    complex shift for real part using Kramers Kronig
   OMEGAMAX=  -1.0    maximum frequency
   DEG_THRESHOLD= 0.2000000E-02 threshold for treating states as degnerate
   RTIME   =    0.100 relaxation time in fs

 Orbital magnetization related:
   ORBITALMAG=     F  switch on orbital magnetization
   LCHIMAG   =     F  perturbation theory with respect to B field
   DQ        =  0.001000  dq finite difference perturbation B field



--------------------------------------------------------------------------------------------------------


 Static calculation
 charge density and potential will be updated during run
 non collinear spin polarized calculation
 Variant of blocked Davidson
 Davidson routine will perform the subspace rotation
 perform sub-space diagonalisation
    after iterative eigenvector-optimisation
 modified Broyden-mixing scheme, WC =      100.0
 initial mixing is a Kerker type mixing with AMIX =  0.4000 and BMIX =      1.0000
 Hartree-type preconditioning will be used
 using additional bands          226
 real space projection scheme for non local part
 use partial core corrections
 calculate Harris-corrections to forces 
   (improved forces if not selfconsistent)
 use gradient corrections 
 use of overlap-Matrix (Vanderbilt PP)
 Fermi weights with tetrahedron method with Bloechl corrections


--------------------------------------------------------------------------------------------------------


  energy-cutoff  :      450.00
  volume of cell :      481.22
      direct lattice vectors                 reciprocal lattice vectors
     7.836086660 -0.000000002  0.000000000     0.127614719 -0.000000000  0.000000000
     0.000000002  7.836086660  0.000000000     0.000000000  0.127614719  0.000000000
     0.000000000  0.000000000  7.836856982     0.000000000  0.000000000  0.127602176

  length of vectors
     7.836086660  7.836086660  7.836856982     0.127614719  0.127614719  0.127602176


 
 k-points in units of 2pi/SCALE and weight: Monkhorst Pack                          
   0.00000000  0.00000000  0.00000000       0.008
   0.09966710 -0.00000000  0.00000000       0.008
   0.19933419 -0.00000000  0.00000000       0.008
  -0.19933419  0.00000000  0.00000000       0.008
  -0.09966710  0.00000000  0.00000000       0.008
   0.00000000  0.09966710  0.00000000       0.008
   0.09966710  0.09966710  0.00000000       0.008
   0.19933419  0.09966710  0.00000000       0.008
  -0.19933419  0.09966710  0.00000000       0.008
  -0.09966710  0.09966710  0.00000000       0.008
   0.00000000  0.19933419  0.00000000       0.008
   0.09966710  0.19933419  0.00000000       0.008
   0.19933419  0.19933419  0.00000000       0.008
  -0.19933419  0.19933419  0.00000000       0.008
  -0.09966710  0.19933419  0.00000000       0.008
  -0.00000000 -0.19933419  0.00000000       0.008
   0.09966710 -0.19933419  0.00000000       0.008
   0.19933419 -0.19933419  0.00000000       0.008
  -0.19933419 -0.19933419  0.00000000       0.008
  -0.09966710 -0.19933419  0.00000000       0.008
  -0.00000000 -0.09966710  0.00000000       0.008
   0.09966710 -0.09966710  0.00000000       0.008
   0.19933419 -0.09966710  0.00000000       0.008
  -0.19933419 -0.09966710  0.00000000       0.008
  -0.09966710 -0.09966710  0.00000000       0.008
   0.00000000  0.00000000  0.09965730       0.008
   0.09966710 -0.00000000  0.09965730       0.008
   0.19933419 -0.00000000  0.09965730       0.008
  -0.19933419  0.00000000  0.09965730       0.008
  -0.09966710  0.00000000  0.09965730       0.008
   0.00000000  0.09966710  0.09965730       0.008
   0.09966710  0.09966710  0.09965730       0.008
   0.19933419  0.09966710  0.09965730       0.008
  -0.19933419  0.09966710  0.09965730       0.008
  -0.09966710  0.09966710  0.09965730       0.008
   0.00000000  0.19933419  0.09965730       0.008
   0.09966710  0.19933419  0.09965730       0.008
   0.19933419  0.19933419  0.09965730       0.008
  -0.19933419  0.19933419  0.09965730       0.008
  -0.09966710  0.19933419  0.09965730       0.008
  -0.00000000 -0.19933419  0.09965730       0.008
   0.09966710 -0.19933419  0.09965730       0.008
   0.19933419 -0.19933419  0.09965730       0.008
  -0.19933419 -0.19933419  0.09965730       0.008
  -0.09966710 -0.19933419  0.09965730       0.008
  -0.00000000 -0.09966710  0.09965730       0.008
   0.09966710 -0.09966710  0.09965730       0.008
   0.19933419 -0.09966710  0.09965730       0.008
  -0.19933419 -0.09966710  0.09965730       0.008
  -0.09966710 -0.09966710  0.09965730       0.008
   0.00000000  0.00000000  0.19931460       0.008
   0.09966710 -0.00000000  0.19931460       0.008
   0.19933419 -0.00000000  0.19931460       0.008
  -0.19933419  0.00000000  0.19931460       0.008
  -0.09966710  0.00000000  0.19931460       0.008
   0.00000000  0.09966710  0.19931460       0.008
   0.09966710  0.09966710  0.19931460       0.008
   0.19933419  0.09966710  0.19931460       0.008
  -0.19933419  0.09966710  0.19931460       0.008
  -0.09966710  0.09966710  0.19931460       0.008
   0.00000000  0.19933419  0.19931460       0.008
   0.09966710  0.19933419  0.19931460       0.008
   0.19933419  0.19933419  0.19931460       0.008
  -0.19933419  0.19933419  0.19931460       0.008
  -0.09966710  0.19933419  0.19931460       0.008
  -0.00000000 -0.19933419  0.19931460       0.008
   0.09966710 -0.19933419  0.19931460       0.008
   0.19933419 -0.19933419  0.19931460       0.008
  -0.19933419 -0.19933419  0.19931460       0.008
  -0.09966710 -0.19933419  0.19931460       0.008
  -0.00000000 -0.09966710  0.19931460       0.008
   0.09966710 -0.09966710  0.19931460       0.008
   0.19933419 -0.09966710  0.19931460       0.008
  -0.19933419 -0.09966710  0.19931460       0.008
  -0.09966710 -0.09966710  0.19931460       0.008
   0.00000000  0.00000000 -0.19931460       0.008
   0.09966710 -0.00000000 -0.19931460       0.008
   0.19933419 -0.00000000 -0.19931460       0.008
  -0.19933419  0.00000000 -0.19931460       0.008
  -0.09966710  0.00000000 -0.19931460       0.008
   0.00000000  0.09966710 -0.19931460       0.008
   0.09966710  0.09966710 -0.19931460       0.008
   0.19933419  0.09966710 -0.19931460       0.008
  -0.19933419  0.09966710 -0.19931460       0.008
  -0.09966710  0.09966710 -0.19931460       0.008
   0.00000000  0.19933419 -0.19931460       0.008
   0.09966710  0.19933419 -0.19931460       0.008
   0.19933419  0.19933419 -0.19931460       0.008
  -0.19933419  0.19933419 -0.19931460       0.008
  -0.09966710  0.19933419 -0.19931460       0.008
  -0.00000000 -0.19933419 -0.19931460       0.008
   0.09966710 -0.19933419 -0.19931460       0.008
   0.19933419 -0.19933419 -0.19931460       0.008
  -0.19933419 -0.19933419 -0.19931460       0.008
  -0.09966710 -0.19933419 -0.19931460       0.008
  -0.00000000 -0.09966710 -0.19931460       0.008
   0.09966710 -0.09966710 -0.19931460       0.008
   0.19933419 -0.09966710 -0.19931460       0.008
  -0.19933419 -0.09966710 -0.19931460       0.008
  -0.09966710 -0.09966710 -0.19931460       0.008
   0.00000000  0.00000000 -0.09965730       0.008
   0.09966710 -0.00000000 -0.09965730       0.008
   0.19933419 -0.00000000 -0.09965730       0.008
  -0.19933419  0.00000000 -0.09965730       0.008
  -0.09966710  0.00000000 -0.09965730       0.008
   0.00000000  0.09966710 -0.09965730       0.008
   0.09966710  0.09966710 -0.09965730       0.008
   0.19933419  0.09966710 -0.09965730       0.008
  -0.19933419  0.09966710 -0.09965730       0.008
  -0.09966710  0.09966710 -0.09965730       0.008
   0.00000000  0.19933419 -0.09965730       0.008
   0.09966710  0.19933419 -0.09965730       0.008
   0.19933419  0.19933419 -0.09965730       0.008
  -0.19933419  0.19933419 -0.09965730       0.008
  -0.09966710  0.19933419 -0.09965730       0.008
  -0.00000000 -0.19933419 -0.09965730       0.008
   0.09966710 -0.19933419 -0.09965730       0.008
   0.19933419 -0.19933419 -0.09965730       0.008
  -0.19933419 -0.19933419 -0.09965730       0.008
  -0.09966710 -0.19933419 -0.09965730       0.008
  -0.00000000 -0.09966710 -0.09965730       0.008
   0.09966710 -0.09966710 -0.09965730       0.008
   0.19933419 -0.09966710 -0.09965730       0.008
  -0.19933419 -0.09966710 -0.09965730       0.008
  -0.09966710 -0.09966710 -0.09965730       0.008
 
 k-points in reciprocal lattice and weights: Monkhorst Pack                          
   0.00000000  0.00000000  0.00000000       0.008
   0.20000000  0.00000000  0.00000000       0.008
   0.40000000  0.00000000  0.00000000       0.008
  -0.40000000  0.00000000  0.00000000       0.008
  -0.20000000  0.00000000  0.00000000       0.008
   0.00000000  0.20000000  0.00000000       0.008
   0.20000000  0.20000000  0.00000000       0.008
   0.40000000  0.20000000  0.00000000       0.008
  -0.40000000  0.20000000  0.00000000       0.008
  -0.20000000  0.20000000  0.00000000       0.008
   0.00000000  0.40000000  0.00000000       0.008
   0.20000000  0.40000000  0.00000000       0.008
   0.40000000  0.40000000  0.00000000       0.008
  -0.40000000  0.40000000  0.00000000       0.008
  -0.20000000  0.40000000  0.00000000       0.008
   0.00000000 -0.40000000  0.00000000       0.008
   0.20000000 -0.40000000  0.00000000       0.008
   0.40000000 -0.40000000  0.00000000       0.008
  -0.40000000 -0.40000000  0.00000000       0.008
  -0.20000000 -0.40000000  0.00000000       0.008
   0.00000000 -0.20000000  0.00000000       0.008
   0.20000000 -0.20000000  0.00000000       0.008
   0.40000000 -0.20000000  0.00000000       0.008
  -0.40000000 -0.20000000  0.00000000       0.008
  -0.20000000 -0.20000000  0.00000000       0.008
   0.00000000  0.00000000  0.20000000       0.008
   0.20000000  0.00000000  0.20000000       0.008
   0.40000000  0.00000000  0.20000000       0.008
  -0.40000000  0.00000000  0.20000000       0.008
  -0.20000000  0.00000000  0.20000000       0.008
   0.00000000  0.20000000  0.20000000       0.008
   0.20000000  0.20000000  0.20000000       0.008
   0.40000000  0.20000000  0.20000000       0.008
  -0.40000000  0.20000000  0.20000000       0.008
  -0.20000000  0.20000000  0.20000000       0.008
   0.00000000  0.40000000  0.20000000       0.008
   0.20000000  0.40000000  0.20000000       0.008
   0.40000000  0.40000000  0.20000000       0.008
  -0.40000000  0.40000000  0.20000000       0.008
  -0.20000000  0.40000000  0.20000000       0.008
   0.00000000 -0.40000000  0.20000000       0.008
   0.20000000 -0.40000000  0.20000000       0.008
   0.40000000 -0.40000000  0.20000000       0.008
  -0.40000000 -0.40000000  0.20000000       0.008
  -0.20000000 -0.40000000  0.20000000       0.008
   0.00000000 -0.20000000  0.20000000       0.008
   0.20000000 -0.20000000  0.20000000       0.008
   0.40000000 -0.20000000  0.20000000       0.008
  -0.40000000 -0.20000000  0.20000000       0.008
  -0.20000000 -0.20000000  0.20000000       0.008
   0.00000000  0.00000000  0.40000000       0.008
   0.20000000  0.00000000  0.40000000       0.008
   0.40000000  0.00000000  0.40000000       0.008
  -0.40000000  0.00000000  0.40000000       0.008
  -0.20000000  0.00000000  0.40000000       0.008
   0.00000000  0.20000000  0.40000000       0.008
   0.20000000  0.20000000  0.40000000       0.008
   0.40000000  0.20000000  0.40000000       0.008
  -0.40000000  0.20000000  0.40000000       0.008
  -0.20000000  0.20000000  0.40000000       0.008
   0.00000000  0.40000000  0.40000000       0.008
   0.20000000  0.40000000  0.40000000       0.008
   0.40000000  0.40000000  0.40000000       0.008
  -0.40000000  0.40000000  0.40000000       0.008
  -0.20000000  0.40000000  0.40000000       0.008
   0.00000000 -0.40000000  0.40000000       0.008
   0.20000000 -0.40000000  0.40000000       0.008
   0.40000000 -0.40000000  0.40000000       0.008
  -0.40000000 -0.40000000  0.40000000       0.008
  -0.20000000 -0.40000000  0.40000000       0.008
   0.00000000 -0.20000000  0.40000000       0.008
   0.20000000 -0.20000000  0.40000000       0.008
   0.40000000 -0.20000000  0.40000000       0.008
  -0.40000000 -0.20000000  0.40000000       0.008
  -0.20000000 -0.20000000  0.40000000       0.008
   0.00000000  0.00000000 -0.40000000       0.008
   0.20000000  0.00000000 -0.40000000       0.008
   0.40000000  0.00000000 -0.40000000       0.008
  -0.40000000  0.00000000 -0.40000000       0.008
  -0.20000000  0.00000000 -0.40000000       0.008
   0.00000000  0.20000000 -0.40000000       0.008
   0.20000000  0.20000000 -0.40000000       0.008
   0.40000000  0.20000000 -0.40000000       0.008
  -0.40000000  0.20000000 -0.40000000       0.008
  -0.20000000  0.20000000 -0.40000000       0.008
   0.00000000  0.40000000 -0.40000000       0.008
   0.20000000  0.40000000 -0.40000000       0.008
   0.40000000  0.40000000 -0.40000000       0.008
  -0.40000000  0.40000000 -0.40000000       0.008
  -0.20000000  0.40000000 -0.40000000       0.008
   0.00000000 -0.40000000 -0.40000000       0.008
   0.20000000 -0.40000000 -0.40000000       0.008
   0.40000000 -0.40000000 -0.40000000       0.008
  -0.40000000 -0.40000000 -0.40000000       0.008
  -0.20000000 -0.40000000 -0.40000000       0.008
   0.00000000 -0.20000000 -0.40000000       0.008
   0.20000000 -0.20000000 -0.40000000       0.008
   0.40000000 -0.20000000 -0.40000000       0.008
  -0.40000000 -0.20000000 -0.40000000       0.008
  -0.20000000 -0.20000000 -0.40000000       0.008
   0.00000000  0.00000000 -0.20000000       0.008
   0.20000000  0.00000000 -0.20000000       0.008
   0.40000000  0.00000000 -0.20000000       0.008
  -0.40000000  0.00000000 -0.20000000       0.008
  -0.20000000  0.00000000 -0.20000000       0.008
   0.00000000  0.20000000 -0.20000000       0.008
   0.20000000  0.20000000 -0.20000000       0.008
   0.40000000  0.20000000 -0.20000000       0.008
  -0.40000000  0.20000000 -0.20000000       0.008
  -0.20000000  0.20000000 -0.20000000       0.008
   0.00000000  0.40000000 -0.20000000       0.008
   0.20000000  0.40000000 -0.20000000       0.008
   0.40000000  0.40000000 -0.20000000       0.008
  -0.40000000  0.40000000 -0.20000000       0.008
  -0.20000000  0.40000000 -0.20000000       0.008
   0.00000000 -0.40000000 -0.20000000       0.008
   0.20000000 -0.40000000 -0.20000000       0.008
   0.40000000 -0.40000000 -0.20000000       0.008
  -0.40000000 -0.40000000 -0.20000000       0.008
  -0.20000000 -0.40000000 -0.20000000       0.008
   0.00000000 -0.20000000 -0.20000000       0.008
   0.20000000 -0.20000000 -0.20000000       0.008
   0.40000000 -0.20000000 -0.20000000       0.008
  -0.40000000 -0.20000000 -0.20000000       0.008
  -0.20000000 -0.20000000 -0.20000000       0.008
 
 position of ions in fractional coordinates (direct lattice) 
   0.00000000  0.00000000  0.00000000
   0.50000000  0.00000000  1.00000000
   0.00000000  0.50000000  0.00000000
   0.50000000  0.50000000  0.00000000
   0.00000000  0.00000000  0.50000000
   0.50000000  0.00000000  0.50000000
   0.00000000  0.50000000  0.50000000
   0.50000000  0.50000000  0.50000000
   0.25000000  0.25000000  0.25000000
   0.75000000  0.75000000  0.25000000
   0.75000000  0.25000000  0.75000000
   0.25000000  0.75000000  0.75000000
   0.75000000  0.25000000  0.25000000
   0.25000000  0.75000000  0.25000000
   0.25000000  0.25000000  0.75000000
   0.75000000  0.75000000  0.75000000
   0.00187860  0.25002837  0.25000000
   0.25002837  0.00187860  0.25000000
   0.25000000  0.25000000  0.00187689
   0.49812140  0.24997163  0.25000000
   0.74997163  0.99812140  0.25000000
   0.75000000  0.25000000  0.99812311
   0.99812140  0.74997163  0.25000000
   0.24997163  0.49812140  0.25000000
   0.25000000  0.75000000  0.99812311
   0.50187860  0.75002837  0.25000000
   0.75002837  0.50187860  0.25000000
   0.75000000  0.75000000  0.00187689
   0.99812140  0.25002837  0.75000000
   0.25002837  0.99812140  0.75000000
   0.25000000  0.25000000  0.49812311
   0.50187860  0.24997163  0.75000000
   0.74997163  0.00187860  0.75000000
   0.75000000  0.25000000  0.50187689
   0.00187860  0.74997163  0.75000000
   0.24997163  0.50187860  0.75000000
   0.25000000  0.75000000  0.50187689
   0.49812140  0.75002837  0.75000000
   0.75002837  0.49812140  0.75000000
   0.75000000  0.75000000  0.49812311
 
 position of ions in cartesian coordinates  (Angst):
   0.00000000  0.00000000  0.00000000
   3.91804333 -0.00000000  7.83685696
   0.00000000  3.91804333  0.00000002
   3.91804333  3.91804333  0.00000000
   0.00000000  0.00000000  3.91842849
   3.91804333 -0.00000000  3.91842847
   0.00000000  3.91804333  3.91842851
   3.91804333  3.91804333  3.91842849
   1.95902167  1.95902166  1.95921425
   5.87706500  5.87706499  1.95921425
   5.87706500  1.95902166  5.87764274
   1.95902167  5.87706499  5.87764274
   5.87706500  1.95902166  1.95921425
   1.95902167  5.87706499  1.95921425
   1.95902167  1.95902166  5.87764274
   5.87706500  5.87706499  5.87764274
   0.01472088  1.95924395  1.95921422
   1.95924400  0.01472088  1.95921421
   1.95902165  1.95902168  0.01470891
   3.90332245  1.95879938  1.95921428
   5.87684266  7.82136578  1.95921421
   5.87706498  1.95902165  7.82214807
   7.82136578  5.87684271  1.95921422
   1.95879933  3.90332245  1.95921428
   1.95902168  5.87706501  7.82214807
   3.93276421  5.87728728  1.95921428
   5.87728733  3.93276421  1.95921428
   5.87706501  5.87706498  0.01470891
   7.82136578  1.95924400  5.87764277
   1.95924395  7.82136578  5.87764277
   1.95902168  1.95902165  3.90371958
   3.93276421  1.95879933  5.87764270
   5.87684271  0.01472088  5.87764277
   5.87706501  1.95902168  3.93313740
   0.01472088  5.87684266  5.87764277
   1.95879938  3.93276421  5.87764271
   1.95902165  5.87706498  3.93313740
   3.90332245  5.87728733  5.87764270
   5.87728728  3.90332245  5.87764271
   5.87706498  5.87706501  3.90371958
 
 Euler angles ALPHA=     0.0000000  BETA=     0.0000000

 transformation matrix from SAXIS to cartesian coordinates
 ---------------------------------------------------------
     1.0000000 m_x     0.0000000 m_y     0.0000000 m_z
     0.0000000 m_x     1.0000000 m_y     0.0000000 m_z
     0.0000000 m_x     0.0000000 m_y     1.0000000 m_z

 transformation matrix from cartesian coordinates to SAXIS
 ---------------------------------------------------------
     1.0000000 m_x     0.0000000 m_y     0.0000000 m_z
     0.0000000 m_x     1.0000000 m_y     0.0000000 m_z
     0.0000000 m_x     0.0000000 m_y     1.0000000 m_z




--------------------------------------------------------------------------------------------------------


 k-point  1 :   0.0000 0.0000 0.0000  plane waves:   20790
 k-point  2 :   0.2000 0.0000 0.0000  plane waves:   20902
 k-point  3 :   0.4000 0.0000 0.0000  plane waves:   20878
 k-point  4 :  -0.4000 0.0000 0.0000  plane waves:   20878
 k-point  5 :  -0.2000 0.0000 0.0000  plane waves:   20902
 k-point  6 :   0.0000 0.2000 0.0000  plane waves:   20902
 k-point  7 :   0.2000 0.2000 0.0000  plane waves:   20882
 k-point  8 :   0.4000 0.2000 0.0000  plane waves:   20846
 k-point  9 :  -0.4000 0.2000 0.0000  plane waves:   20846
 k-point 10 :  -0.2000 0.2000 0.0000  plane waves:   20882
 k-point 11 :   0.0000 0.4000 0.0000  plane waves:   20878
 k-point 12 :   0.2000 0.4000 0.0000  plane waves:   20846
 k-point 13 :   0.4000 0.4000 0.0000  plane waves:   20826
 k-point 14 :  -0.4000 0.4000 0.0000  plane waves:   20826
 k-point 15 :  -0.2000 0.4000 0.0000  plane waves:   20846
 k-point 16 :   0.0000-0.4000 0.0000  plane waves:   20878
 k-point 17 :   0.2000-0.4000 0.0000  plane waves:   20846
 k-point 18 :   0.4000-0.4000 0.0000  plane waves:   20826
 k-point 19 :  -0.4000-0.4000 0.0000  plane waves:   20826
 k-point 20 :  -0.2000-0.4000 0.0000  plane waves:   20846
 k-point 21 :   0.0000-0.2000 0.0000  plane waves:   20902
 k-point 22 :   0.2000-0.2000 0.0000  plane waves:   20882
 k-point 23 :   0.4000-0.2000 0.0000  plane waves:   20846
 k-point 24 :  -0.4000-0.2000 0.0000  plane waves:   20846
 k-point 25 :  -0.2000-0.2000 0.0000  plane waves:   20882
 k-point 26 :   0.0000 0.0000 0.2000  plane waves:   20902
 k-point 27 :   0.2000 0.0000 0.2000  plane waves:   20882
 k-point 28 :   0.4000 0.0000 0.2000  plane waves:   20846
 k-point 29 :  -0.4000 0.0000 0.2000  plane waves:   20846
 k-point 30 :  -0.2000 0.0000 0.2000  plane waves:   20882
 k-point 31 :   0.0000 0.2000 0.2000  plane waves:   20882
 k-point 32 :   0.2000 0.2000 0.2000  plane waves:   20874
 k-point 33 :   0.4000 0.2000 0.2000  plane waves:   20858
 k-point 34 :  -0.4000 0.2000 0.2000  plane waves:   20858
 k-point 35 :  -0.2000 0.2000 0.2000  plane waves:   20874
 k-point 36 :   0.0000 0.4000 0.2000  plane waves:   20846
 k-point 37 :   0.2000 0.4000 0.2000  plane waves:   20858
 k-point 38 :   0.4000 0.4000 0.2000  plane waves:   20892
 k-point 39 :  -0.4000 0.4000 0.2000  plane waves:   20892
 k-point 40 :  -0.2000 0.4000 0.2000  plane waves:   20858
 k-point 41 :   0.0000-0.4000 0.2000  plane waves:   20846
 k-point 42 :   0.2000-0.4000 0.2000  plane waves:   20858
 k-point 43 :   0.4000-0.4000 0.2000  plane waves:   20892
 k-point 44 :  -0.4000-0.4000 0.2000  plane waves:   20892
 k-point 45 :  -0.2000-0.4000 0.2000  plane waves:   20858
 k-point 46 :   0.0000-0.2000 0.2000  plane waves:   20882
 k-point 47 :   0.2000-0.2000 0.2000  plane waves:   20874
 k-point 48 :   0.4000-0.2000 0.2000  plane waves:   20858
 k-point 49 :  -0.4000-0.2000 0.2000  plane waves:   20858
 k-point 50 :  -0.2000-0.2000 0.2000  plane waves:   20874
 k-point 51 :   0.0000 0.0000 0.4000  plane waves:   20878
 k-point 52 :   0.2000 0.0000 0.4000  plane waves:   20846
 k-point 53 :   0.4000 0.0000 0.4000  plane waves:   20838
 k-point 54 :  -0.4000 0.0000 0.4000  plane waves:   20838
 k-point 55 :  -0.2000 0.0000 0.4000  plane waves:   20846
 k-point 56 :   0.0000 0.2000 0.4000  plane waves:   20846
 k-point 57 :   0.2000 0.2000 0.4000  plane waves:   20858
 k-point 58 :   0.4000 0.2000 0.4000  plane waves:   20892
 k-point 59 :  -0.4000 0.2000 0.4000  plane waves:   20892
 k-point 60 :  -0.2000 0.2000 0.4000  plane waves:   20858
 k-point 61 :   0.0000 0.4000 0.4000  plane waves:   20838
 k-point 62 :   0.2000 0.4000 0.4000  plane waves:   20892
 k-point 63 :   0.4000 0.4000 0.4000  plane waves:   20774
 k-point 64 :  -0.4000 0.4000 0.4000  plane waves:   20774
 k-point 65 :  -0.2000 0.4000 0.4000  plane waves:   20892
 k-point 66 :   0.0000-0.4000 0.4000  plane waves:   20838
 k-point 67 :   0.2000-0.4000 0.4000  plane waves:   20892
 k-point 68 :   0.4000-0.4000 0.4000  plane waves:   20774
 k-point 69 :  -0.4000-0.4000 0.4000  plane waves:   20774
 k-point 70 :  -0.2000-0.4000 0.4000  plane waves:   20892
 k-point 71 :   0.0000-0.2000 0.4000  plane waves:   20846
 k-point 72 :   0.2000-0.2000 0.4000  plane waves:   20858
 k-point 73 :   0.4000-0.2000 0.4000  plane waves:   20892
 k-point 74 :  -0.4000-0.2000 0.4000  plane waves:   20892
 k-point 75 :  -0.2000-0.2000 0.4000  plane waves:   20858
 k-point 76 :   0.0000 0.0000-0.4000  plane waves:   20878
 k-point 77 :   0.2000 0.0000-0.4000  plane waves:   20846
 k-point 78 :   0.4000 0.0000-0.4000  plane waves:   20838
 k-point 79 :  -0.4000 0.0000-0.4000  plane waves:   20838
 k-point 80 :  -0.2000 0.0000-0.4000  plane waves:   20846
 k-point 81 :   0.0000 0.2000-0.4000  plane waves:   20846
 k-point 82 :   0.2000 0.2000-0.4000  plane waves:   20858
 k-point 83 :   0.4000 0.2000-0.4000  plane waves:   20892
 k-point 84 :  -0.4000 0.2000-0.4000  plane waves:   20892
 k-point 85 :  -0.2000 0.2000-0.4000  plane waves:   20858
 k-point 86 :   0.0000 0.4000-0.4000  plane waves:   20838
 k-point 87 :   0.2000 0.4000-0.4000  plane waves:   20892
 k-point 88 :   0.4000 0.4000-0.4000  plane waves:   20774
 k-point 89 :  -0.4000 0.4000-0.4000  plane waves:   20774
 k-point 90 :  -0.2000 0.4000-0.4000  plane waves:   20892
 k-point 91 :   0.0000-0.4000-0.4000  plane waves:   20838
 k-point 92 :   0.2000-0.4000-0.4000  plane waves:   20892
 k-point 93 :   0.4000-0.4000-0.4000  plane waves:   20774
 k-point 94 :  -0.4000-0.4000-0.4000  plane waves:   20774
 k-point 95 :  -0.2000-0.4000-0.4000  plane waves:   20892
 k-point 96 :   0.0000-0.2000-0.4000  plane waves:   20846
 k-point 97 :   0.2000-0.2000-0.4000  plane waves:   20858
 k-point 98 :   0.4000-0.2000-0.4000  plane waves:   20892
 k-point 99 :  -0.4000-0.2000-0.4000  plane waves:   20892
 k-point ** :  -0.2000-0.2000-0.4000  plane waves:   20858
 k-point ** :   0.0000 0.0000-0.2000  plane waves:   20902
 k-point ** :   0.2000 0.0000-0.2000  plane waves:   20882
 k-point ** :   0.4000 0.0000-0.2000  plane waves:   20846
 k-point ** :  -0.4000 0.0000-0.2000  plane waves:   20846
 k-point ** :  -0.2000 0.0000-0.2000  plane waves:   20882
 k-point ** :   0.0000 0.2000-0.2000  plane waves:   20882
 k-point ** :   0.2000 0.2000-0.2000  plane waves:   20874
 k-point ** :   0.4000 0.2000-0.2000  plane waves:   20858
 k-point ** :  -0.4000 0.2000-0.2000  plane waves:   20858
 k-point ** :  -0.2000 0.2000-0.2000  plane waves:   20874
 k-point ** :   0.0000 0.4000-0.2000  plane waves:   20846
 k-point ** :   0.2000 0.4000-0.2000  plane waves:   20858
 k-point ** :   0.4000 0.4000-0.2000  plane waves:   20892
 k-point ** :  -0.4000 0.4000-0.2000  plane waves:   20892
 k-point ** :  -0.2000 0.4000-0.2000  plane waves:   20858
 k-point ** :   0.0000-0.4000-0.2000  plane waves:   20846
 k-point ** :   0.2000-0.4000-0.2000  plane waves:   20858
 k-point ** :   0.4000-0.4000-0.2000  plane waves:   20892
 k-point ** :  -0.4000-0.4000-0.2000  plane waves:   20892
 k-point ** :  -0.2000-0.4000-0.2000  plane waves:   20858
 k-point ** :   0.0000-0.2000-0.2000  plane waves:   20882
 k-point ** :   0.2000-0.2000-0.2000  plane waves:   20874
 k-point ** :   0.4000-0.2000-0.2000  plane waves:   20858
 k-point ** :  -0.4000-0.2000-0.2000  plane waves:   20858
 k-point ** :  -0.2000-0.2000-0.2000  plane waves:   20874

 maximum and minimum number of plane-waves per node :      2162     2024

 maximum number of plane-waves:     20902
 maximum index in each direction: 
   IXMAX=   13   IYMAX=   13   IZMAX=   13
   IXMIN=  -13   IYMIN=  -13   IZMIN=  -13

 NGX is ok and might be reduce to  54
 NGY is ok and might be reduce to  54
 NGZ is ok and might be reduce to  54

 real space projection operators:
  total allocation   :      17281.88 KBytes
  max/ min on nodes  :       1885.06       1595.50


 parallel 3D FFT for wavefunctions:
    minimum data exchange during FFTs selected (reduces bandwidth)
 parallel 3D FFT for charge:
    minimum data exchange during FFTs selected (reduces bandwidth)


 total amount of memory used by VASP on root node   492231. kBytes
========================================================================

   base      :      30000. kBytes
   nonlr-proj:       6561. kBytes
   fftplans  :       2897. kBytes
   grid      :      11757. kBytes
   one-center:        248. kBytes
   wavefun   :     440768. kBytes
 
     INWAV:  cpu time    0.00: real time    0.00
 Broyden mixing: mesh for mixing (old mesh)
   NGX = 27   NGY = 27   NGZ = 27
  (NGX  =108   NGY  =108   NGZ  =108)
  gives a total of  19683 points

 initial charge density was supplied:
 charge density of overlapping atoms calculated
 number of electron     324.0000000 magnetization       0.0000000      0.0000000      0.0000000
 keeping initial charge density in first step


--------------------------------------------------------------------------------------------------------


 Maximum index for non-local projection operator          839
 Maximum index for augmentation-charges          853 (set IRDMAX)


--------------------------------------------------------------------------------------------------------


 First call to EWALD:  gamma=   0.226
 Maximum number of real-space cells 3x 3x 3
 Maximum number of reciprocal cells 3x 3x 3

 FEWALD executed in parallel
    FEWALD:  cpu time    0.00: real time    0.00


----------------------------------------- Iteration    1(   1)  ---------------------------------------


    POTLOK:  cpu time    0.23: real time    0.23
    SETDIJ:  cpu time    0.03: real time    0.03
     EDDAV:  cpu time  357.59: real time  358.38
 BZINTS: Fermi energy: 25.957791;324.000000 electrons
         Band energy: 764.054325;  BLOECHL correction: -0.017010
       DOS:  cpu time    2.03: real time    2.04
    --------------------------------------------
      LOOP:  cpu time  359.88: real time  360.69

 eigenvalue-minimisations  : 97000
 total energy-change (2. order) : 0.3941557E+04  (-0.1505277E+05)
 number of electron     324.0000000 magnetization      -0.0000000      0.0000000      0.0000000
 augmentation part      324.0000000 magnetization      -0.0000000      0.0000000      0.0000000

 Free energy of the ion-electron system (eV)
  ---------------------------------------------------
  alpha Z        PSCENC =      2208.70601316
  Ewald energy   TEWEN  =    -23717.13655367
  -Hartree energ DENC   =     -6635.80369060
  -exchange      EXHF   =         0.00000000
  -V(xc)+E(xc)   XCENC  =      1421.83189598
  PAW double counting   =     18735.95846746   -18540.20401616
  entropy T*S    EENTRO =         0.00000000
  eigenvalues    EBANDS =       764.05432535
  atomic energy  EATOM  =     29704.15104717
  ---------------------------------------------------
  free energy    TOTEN  =      3941.55748868 eV

  energy without entropy =     3941.55748868  energy(sigma->0) =     3941.55748868


--------------------------------------------------------------------------------------------------------




----------------------------------------- Iteration    1(   2)  ---------------------------------------


     EDDAV:  cpu time  357.95: real time  358.81
 BZINTS: Fermi energy: 10.859452;324.000000 electrons
         Band energy:***********;  BLOECHL correction: -0.009802
       DOS:  cpu time    0.43: real time    0.43
    --------------------------------------------
      LOOP:  cpu time  358.95: real time  359.85

 eigenvalue-minimisations  : 97000
 total energy-change (2. order) :-0.3558490E+04  (-0.3426357E+04)
 number of electron     324.0000000 magnetization      -0.0000000      0.0000000      0.0000000
 augmentation part      324.0000000 magnetization      -0.0000000      0.0000000      0.0000000

 Free energy of the ion-electron system (eV)
  ---------------------------------------------------
  alpha Z        PSCENC =      2208.70601316
  Ewald energy   TEWEN  =    -23717.13655367
  -Hartree energ DENC   =     -6635.80369060
  -exchange      EXHF   =         0.00000000
  -V(xc)+E(xc)   XCENC  =      1421.83189598
  PAW double counting   =     18735.95846746   -18540.20401616
  entropy T*S    EENTRO =         0.00000000
  eigenvalues    EBANDS =     -2794.43559478
  atomic energy  EATOM  =     29704.15104717
  ---------------------------------------------------
  free energy    TOTEN  =       383.06756856 eV

  energy without entropy =      383.06756856  energy(sigma->0) =      383.06756856


--------------------------------------------------------------------------------------------------------




----------------------------------------- Iteration    1(   3)  ---------------------------------------


     EDDAV:  cpu time  437.71: real time  438.83
 BZINTS: Fermi energy:  7.604585;324.000000 electrons
         Band energy:***********;  BLOECHL correction: -0.000111
       DOS:  cpu time    0.35: real time    0.35
    --------------------------------------------
      LOOP:  cpu time  438.18: real time  439.31

 eigenvalue-minimisations  :125800
 total energy-change (2. order) :-0.6316071E+03  (-0.6105388E+03)
 number of electron     324.0000000 magnetization      -0.0000000      0.0000000      0.0000000
 augmentation part      324.0000000 magnetization      -0.0000000      0.0000000      0.0000000

 Free energy of the ion-electron system (eV)
  ---------------------------------------------------
  alpha Z        PSCENC =      2208.70601316
  Ewald energy   TEWEN  =    -23717.13655367
  -Hartree energ DENC   =     -6635.80369060
  -exchange      EXHF   =         0.00000000
  -V(xc)+E(xc)   XCENC  =      1421.83189598
  PAW double counting   =     18735.95846746   -18540.20401616
  entropy T*S    EENTRO =         0.00000000
  eigenvalues    EBANDS =     -3426.04268059
  atomic energy  EATOM  =     29704.15104717
  ---------------------------------------------------
  free energy    TOTEN  =      -248.53951726 eV

  energy without entropy =     -248.53951726  energy(sigma->0) =     -248.53951726


--------------------------------------------------------------------------------------------------------




----------------------------------------- Iteration    1(   4)  ---------------------------------------


     EDDAV:  cpu time  518.27: real time  519.69
 BZINTS: Fermi energy:  6.930000;324.000000 electrons
         Band energy:***********;  BLOECHL correction:  0.000000
       DOS:  cpu time    0.07: real time    0.08
    --------------------------------------------
      LOOP:  cpu time  518.44: real time  519.87

 eigenvalue-minimisations  :155672
 total energy-change (2. order) :-0.5563003E+02  (-0.5503464E+02)
 number of electron     324.0000000 magnetization      -0.0000000      0.0000000      0.0000000
 augmentation part      324.0000000 magnetization      -0.0000000      0.0000000      0.0000000

 Free energy of the ion-electron system (eV)
  ---------------------------------------------------
  alpha Z        PSCENC =      2208.70601316
  Ewald energy   TEWEN  =    -23717.13655367
  -Hartree energ DENC   =     -6635.80369060
  -exchange      EXHF   =         0.00000000
  -V(xc)+E(xc)   XCENC  =      1421.83189598
  PAW double counting   =     18735.95846746   -18540.20401616
  entropy T*S    EENTRO =         0.00000000
  eigenvalues    EBANDS =     -3481.67271452
  atomic energy  EATOM  =     29704.15104717
  ---------------------------------------------------
  free energy    TOTEN  =      -304.16955119 eV

  energy without entropy =     -304.16955119  energy(sigma->0) =     -304.16955119


--------------------------------------------------------------------------------------------------------




----------------------------------------- Iteration    1(   5)  ---------------------------------------


     EDDAV:  cpu time  600.16: real time  601.49
 BZINTS: Fermi energy:  6.930000;324.000000 electrons
         Band energy:***********;  BLOECHL correction:  0.000000
       DOS:  cpu time    0.07: real time    0.07
 


 total charge     
 
# of ion     s       p       d       tot
----------------------------------------
  1        1.985   5.696   0.137   7.819
  2        1.985   5.697   0.137   7.819
  3        1.985   5.697   0.137   7.819
  4        1.985   5.697   0.137   7.819
  5        1.985   5.696   0.137   7.819
  6        1.985   5.697   0.137   7.819
  7        1.985   5.697   0.137   7.819
  8        1.985   5.696   0.137   7.819
  9        2.152   6.269   0.899   9.320
 10        2.152   6.269   0.899   9.320
 11        2.152   6.269   0.899   9.320
 12        2.152   6.269   0.899   9.320
 13        0.269   6.390   3.465  10.123
 14        0.269   6.390   3.465  10.123
 15        0.269   6.390   3.465  10.123
 16        0.269   6.390   3.465  10.123
 17        1.609   4.008   0.000   5.618
 18        1.609   4.011   0.000   5.620
 19        1.609   4.011   0.000   5.620
 20        1.609   4.008   0.000   5.618
 21        1.609   4.011   0.000   5.620
 22        1.609   4.011   0.000   5.620
 23        1.609   4.008   0.000   5.618
 24        1.609   4.011   0.000   5.620
 25        1.609   4.011   0.000   5.620
 26        1.609   4.008   0.000   5.618
 27        1.609   4.011   0.000   5.620
 28        1.609   4.011   0.000   5.620
 29        1.609   4.008   0.000   5.618
 30        1.609   4.011   0.000   5.620
 31        1.609   4.011   0.000   5.620
 32        1.609   4.008   0.000   5.618
 33        1.609   4.011   0.000   5.620
 34        1.609   4.011   0.000   5.620
 35        1.609   4.008   0.000   5.618
 36        1.609   4.011   0.000   5.620
 37        1.609   4.011   0.000   5.620
 38        1.609   4.008   0.000   5.618
 39        1.609   4.011   0.000   5.620
 40        1.609   4.011   0.000   5.620
------------------------------------------------
tot       64.188 192.444  18.553 275.185
 


 magnetization (x)
 
# of ion     s       p       d       tot
----------------------------------------
  1        0.000  -0.000  -0.000   0.000
  2       -0.000   0.000   0.000  -0.000
  3       -0.000  -0.000  -0.000  -0.000
  4       -0.000  -0.000   0.000   0.000
  5       -0.000   0.000  -0.000  -0.000
  6       -0.000  -0.000   0.000   0.000
  7        0.000  -0.000  -0.000  -0.000
  8       -0.000   0.000  -0.000  -0.000
  9       -0.000  -0.000   0.020   0.020
 10        0.000   0.000  -0.020  -0.020
 11        0.000   0.000  -0.016  -0.016
 12       -0.000  -0.000   0.016   0.016
 13       -0.007  -0.009  -1.481  -1.497
 14        0.007   0.009   1.481   1.497
 15        0.009   0.013   2.050   2.072
 16       -0.009  -0.013  -2.050  -2.072
 17        0.001  -0.011   0.000  -0.010
 18       -0.001   0.015   0.000   0.014
 19       -0.001   0.021   0.000   0.019
 20        0.001  -0.011   0.000  -0.010
 21        0.001  -0.015   0.000  -0.014
 22        0.001  -0.015   0.000  -0.014
 23       -0.001   0.011   0.000   0.010
 24       -0.001   0.015   0.000   0.014
 25       -0.001   0.015   0.000   0.014
 26       -0.001   0.011   0.000   0.010
 27        0.001  -0.015   0.000  -0.014
 28        0.001  -0.021   0.000  -0.019
 29       -0.001   0.016   0.000   0.015
 30       -0.001   0.020   0.000   0.019
 31       -0.001   0.021   0.000   0.019
 32       -0.001   0.016   0.000   0.015
 33        0.001  -0.020   0.000  -0.019
 34        0.001  -0.015   0.000  -0.014
 35        0.001  -0.016   0.000  -0.015
 36       -0.001   0.020   0.000   0.019
 37       -0.001   0.015   0.000   0.014
 38        0.001  -0.016   0.000  -0.015
 39        0.001  -0.020   0.000  -0.019
 40        0.001  -0.021   0.000  -0.019
------------------------------------------------
tot       -0.000  -0.000   0.000  -0.000
 


 magnetization (y)
 
# of ion     s       p       d       tot
----------------------------------------
  1        0.000   0.000   0.000   0.000
  2       -0.000   0.000   0.000   0.000
  3        0.000  -0.000  -0.000  -0.000
  4        0.000  -0.000  -0.000  -0.000
  5        0.000  -0.000   0.000   0.000
  6        0.000   0.000  -0.000   0.000
  7       -0.000   0.000  -0.000  -0.000
  8       -0.000   0.000   0.000  -0.000
  9        0.000   0.000  -0.007  -0.007
 10       -0.000  -0.000   0.007   0.007
 11       -0.000  -0.000   0.014   0.013
 12        0.000   0.000  -0.014  -0.013
 13        0.007   0.009   1.513   1.529
 14       -0.007  -0.009  -1.513  -1.529
 15       -0.002  -0.003  -0.526  -0.532
 16        0.002   0.003   0.526   0.531
 17       -0.001   0.012   0.000   0.011
 18        0.001  -0.015   0.000  -0.014
 19        0.000  -0.005   0.000  -0.005
 20       -0.001   0.012   0.000   0.011
 21       -0.001   0.015   0.000   0.014
 22       -0.001   0.015   0.000   0.014
[...]

 Ion:   32  E_soc:     -0.0002408
 l=   1
     0.0000000    -0.0000337    -0.0000434
    -0.0000337     0.0000000    -0.0000433
    -0.0000434    -0.0000433     0.0000000
 l=   2
     0.0000000     0.0000000     0.0000000     0.0000000     0.0000000
     0.0000000     0.0000000     0.0000000     0.0000000     0.0000000
     0.0000000     0.0000000     0.0000000     0.0000000     0.0000000
     0.0000000     0.0000000     0.0000000     0.0000000     0.0000000
     0.0000000     0.0000000     0.0000000     0.0000000     0.0000000
 l=   3
     0.0000000     0.0000000     0.0000000     0.0000000     0.0000000     0.0000000     0.0000000
     0.0000000     0.0000000     0.0000000     0.0000000     0.0000000     0.0000000     0.0000000
     0.0000000     0.0000000     0.0000000     0.0000000     0.0000000     0.0000000     0.0000000
     0.0000000     0.0000000     0.0000000     0.0000000     0.0000000     0.0000000     0.0000000
     0.0000000     0.0000000     0.0000000     0.0000000     0.0000000     0.0000000     0.0000000
     0.0000000     0.0000000     0.0000000     0.0000000     0.0000000     0.0000000     0.0000000
     0.0000000     0.0000000     0.0000000     0.0000000     0.0000000     0.0000000     0.0000000

 Ion:   33  E_soc:     -0.0002912
 l=   1
     0.0000000    -0.0000407    -0.0000422
    -0.0000407     0.0000000    -0.0000627
    -0.0000422    -0.0000627     0.0000000
 l=   2
     0.0000000     0.0000000     0.0000000     0.0000000     0.0000000
     0.0000000     0.0000000     0.0000000     0.0000000     0.0000000
     0.0000000     0.0000000     0.0000000     0.0000000     0.0000000
     0.0000000     0.0000000     0.0000000     0.0000000     0.0000000
     0.0000000     0.0000000     0.0000000     0.0000000     0.0000000
 l=   3
     0.0000000     0.0000000     0.0000000     0.0000000     0.0000000     0.0000000     0.0000000
     0.0000000     0.0000000     0.0000000     0.0000000     0.0000000     0.0000000     0.0000000
     0.0000000     0.0000000     0.0000000     0.0000000     0.0000000     0.0000000     0.0000000
     0.0000000     0.0000000     0.0000000     0.0000000     0.0000000     0.0000000     0.0000000
     0.0000000     0.0000000     0.0000000     0.0000000     0.0000000     0.0000000     0.0000000
     0.0000000     0.0000000     0.0000000     0.0000000     0.0000000     0.0000000     0.0000000
     0.0000000     0.0000000     0.0000000     0.0000000     0.0000000     0.0000000     0.0000000

 Ion:   34  E_soc:     -0.0002970
 l=   1
     0.0000000    -0.0000424    -0.0000660
    -0.0000424     0.0000000    -0.0000401
    -0.0000660    -0.0000401     0.0000000
 l=   2
     0.0000000     0.0000000     0.0000000     0.0000000     0.0000000
     0.0000000     0.0000000     0.0000000     0.0000000     0.0000000
     0.0000000     0.0000000     0.0000000     0.0000000     0.0000000
     0.0000000     0.0000000     0.0000000     0.0000000     0.0000000
     0.0000000     0.0000000     0.0000000     0.0000000     0.0000000
 l=   3
     0.0000000     0.0000000     0.0000000     0.0000000     0.0000000     0.0000000     0.0000000
     0.0000000     0.0000000     0.0000000     0.0000000     0.0000000     0.0000000     0.0000000
     0.0000000     0.0000000     0.0000000     0.0000000     0.0000000     0.0000000     0.0000000
     0.0000000     0.0000000     0.0000000     0.0000000     0.0000000     0.0000000     0.0000000
     0.0000000     0.0000000     0.0000000     0.0000000     0.0000000     0.0000000     0.0000000
     0.0000000     0.0000000     0.0000000     0.0000000     0.0000000     0.0000000     0.0000000
     0.0000000     0.0000000     0.0000000     0.0000000     0.0000000     0.0000000     0.0000000

 Ion:   35  E_soc:     -0.0002408
 l=   1
     0.0000000    -0.0000337    -0.0000434
    -0.0000337     0.0000000    -0.0000433
    -0.0000434    -0.0000433     0.0000000
 l=   2
     0.0000000     0.0000000     0.0000000     0.0000000     0.0000000
     0.0000000     0.0000000     0.0000000     0.0000000     0.0000000
     0.0000000     0.0000000     0.0000000     0.0000000     0.0000000
     0.0000000     0.0000000     0.0000000     0.0000000     0.0000000
     0.0000000     0.0000000     0.0000000     0.0000000     0.0000000
 l=   3
     0.0000000     0.0000000     0.0000000     0.0000000     0.0000000     0.0000000     0.0000000
     0.0000000     0.0000000     0.0000000     0.0000000     0.0000000     0.0000000     0.0000000
     0.0000000     0.0000000     0.0000000     0.0000000     0.0000000     0.0000000     0.0000000
     0.0000000     0.0000000     0.0000000     0.0000000     0.0000000     0.0000000     0.0000000
     0.0000000     0.0000000     0.0000000     0.0000000     0.0000000     0.0000000     0.0000000
     0.0000000     0.0000000     0.0000000     0.0000000     0.0000000     0.0000000     0.0000000
     0.0000000     0.0000000     0.0000000     0.0000000     0.0000000     0.0000000     0.0000000

 Ion:   36  E_soc:     -0.0002913
 l=   1
     0.0000000    -0.0000407    -0.0000422
    -0.0000407     0.0000000    -0.0000627
    -0.0000422    -0.0000627     0.0000000
 l=   2
     0.0000000     0.0000000     0.0000000     0.0000000     0.0000000
     0.0000000     0.0000000     0.0000000     0.0000000     0.0000000
     0.0000000     0.0000000     0.0000000     0.0000000     0.0000000
     0.0000000     0.0000000     0.0000000     0.0000000     0.0000000
     0.0000000     0.0000000     0.0000000     0.0000000     0.0000000
 l=   3
     0.0000000     0.0000000     0.0000000     0.0000000     0.0000000     0.0000000     0.0000000
     0.0000000     0.0000000     0.0000000     0.0000000     0.0000000     0.0000000     0.0000000
     0.0000000     0.0000000     0.0000000     0.0000000     0.0000000     0.0000000     0.0000000
     0.0000000     0.0000000     0.0000000     0.0000000     0.0000000     0.0000000     0.0000000
     0.0000000     0.0000000     0.0000000     0.0000000     0.0000000     0.0000000     0.0000000
     0.0000000     0.0000000     0.0000000     0.0000000     0.0000000     0.0000000     0.0000000
     0.0000000     0.0000000     0.0000000     0.0000000     0.0000000     0.0000000     0.0000000

 Ion:   37  E_soc:     -0.0002970
 l=   1
     0.0000000    -0.0000424    -0.0000660
    -0.0000424     0.0000000    -0.0000401
    -0.0000660    -0.0000401     0.0000000
 l=   2
     0.0000000     0.0000000     0.0000000     0.0000000     0.0000000
     0.0000000     0.0000000     0.0000000     0.0000000     0.0000000
     0.0000000     0.0000000     0.0000000     0.0000000     0.0000000
     0.0000000     0.0000000     0.0000000     0.0000000     0.0000000
     0.0000000     0.0000000     0.0000000     0.0000000     0.0000000
 l=   3
     0.0000000     0.0000000     0.0000000     0.0000000     0.0000000     0.0000000     0.0000000
     0.0000000     0.0000000     0.0000000     0.0000000     0.0000000     0.0000000     0.0000000
     0.0000000     0.0000000     0.0000000     0.0000000     0.0000000     0.0000000     0.0000000
     0.0000000     0.0000000     0.0000000     0.0000000     0.0000000     0.0000000     0.0000000
     0.0000000     0.0000000     0.0000000     0.0000000     0.0000000     0.0000000     0.0000000
     0.0000000     0.0000000     0.0000000     0.0000000     0.0000000     0.0000000     0.0000000
     0.0000000     0.0000000     0.0000000     0.0000000     0.0000000     0.0000000     0.0000000

 Ion:   38  E_soc:     -0.0002408
 l=   1
     0.0000000    -0.0000337    -0.0000434
    -0.0000337     0.0000000    -0.0000433
    -0.0000434    -0.0000433     0.0000000
 l=   2
     0.0000000     0.0000000     0.0000000     0.0000000     0.0000000
     0.0000000     0.0000000     0.0000000     0.0000000     0.0000000
     0.0000000     0.0000000     0.0000000     0.0000000     0.0000000
     0.0000000     0.0000000     0.0000000     0.0000000     0.0000000
     0.0000000     0.0000000     0.0000000     0.0000000     0.0000000
 l=   3
     0.0000000     0.0000000     0.0000000     0.0000000     0.0000000     0.0000000     0.0000000
     0.0000000     0.0000000     0.0000000     0.0000000     0.0000000     0.0000000     0.0000000
     0.0000000     0.0000000     0.0000000     0.0000000     0.0000000     0.0000000     0.0000000
     0.0000000     0.0000000     0.0000000     0.0000000     0.0000000     0.0000000     0.0000000
     0.0000000     0.0000000     0.0000000     0.0000000     0.0000000     0.0000000     0.0000000
     0.0000000     0.0000000     0.0000000     0.0000000     0.0000000     0.0000000     0.0000000
     0.0000000     0.0000000     0.0000000     0.0000000     0.0000000     0.0000000     0.0000000

 Ion:   39  E_soc:     -0.0002912
 l=   1
     0.0000000    -0.0000407    -0.0000422
    -0.0000407     0.0000000    -0.0000627
    -0.0000422    -0.0000627     0.0000000
 l=   2
     0.0000000     0.0000000     0.0000000     0.0000000     0.0000000
     0.0000000     0.0000000     0.0000000     0.0000000     0.0000000
     0.0000000     0.0000000     0.0000000     0.0000000     0.0000000
     0.0000000     0.0000000     0.0000000     0.0000000     0.0000000
     0.0000000     0.0000000     0.0000000     0.0000000     0.0000000
 l=   3
     0.0000000     0.0000000     0.0000000     0.0000000     0.0000000     0.0000000     0.0000000
     0.0000000     0.0000000     0.0000000     0.0000000     0.0000000     0.0000000     0.0000000
     0.0000000     0.0000000     0.0000000     0.0000000     0.0000000     0.0000000     0.0000000
     0.0000000     0.0000000     0.0000000     0.0000000     0.0000000     0.0000000     0.0000000
     0.0000000     0.0000000     0.0000000     0.0000000     0.0000000     0.0000000     0.0000000
     0.0000000     0.0000000     0.0000000     0.0000000     0.0000000     0.0000000     0.0000000
     0.0000000     0.0000000     0.0000000     0.0000000     0.0000000     0.0000000     0.0000000

 Ion:   40  E_soc:     -0.0002970
 l=   1
     0.0000000    -0.0000401    -0.0000660
    -0.0000401     0.0000000    -0.0000424
    -0.0000660    -0.0000424     0.0000000
 l=   2
     0.0000000     0.0000000     0.0000000     0.0000000     0.0000000
     0.0000000     0.0000000     0.0000000     0.0000000     0.0000000
     0.0000000     0.0000000     0.0000000     0.0000000     0.0000000
     0.0000000     0.0000000     0.0000000     0.0000000     0.0000000
     0.0000000     0.0000000     0.0000000     0.0000000     0.0000000
 l=   3
     0.0000000     0.0000000     0.0000000     0.0000000     0.0000000     0.0000000     0.0000000
     0.0000000     0.0000000     0.0000000     0.0000000     0.0000000     0.0000000     0.0000000
     0.0000000     0.0000000     0.0000000     0.0000000     0.0000000     0.0000000     0.0000000
     0.0000000     0.0000000     0.0000000     0.0000000     0.0000000     0.0000000     0.0000000
     0.0000000     0.0000000     0.0000000     0.0000000     0.0000000     0.0000000     0.0000000
     0.0000000     0.0000000     0.0000000     0.0000000     0.0000000     0.0000000     0.0000000
     0.0000000     0.0000000     0.0000000     0.0000000     0.0000000     0.0000000     0.0000000
 


 total charge     
 
# of ion     s       p       d       tot
----------------------------------------
  1        1.995   5.797   0.205   7.997
  2        1.995   5.797   0.204   7.997
  3        1.995   5.797   0.204   7.997
  4        1.995   5.797   0.205   7.997
  5        1.995   5.797   0.205   7.997
  6        1.995   5.797   0.204   7.997
  7        1.995   5.797   0.204   7.997
  8        1.995   5.797   0.205   7.997
  9        2.217   6.343   1.804  10.364
 10        2.217   6.343   1.804  10.364
 11        2.217   6.343   1.804  10.364
 12        2.217   6.343   1.804  10.364
 13        0.335   6.482   4.563  11.379
 14        0.335   6.482   4.563  11.380
 15        0.335   6.482   4.563  11.380
 16        0.335   6.482   4.563  11.380
 17        1.566   3.466   0.000   5.032
 18        1.566   3.466   0.000   5.032
 19        1.566   3.466   0.000   5.032
 20        1.566   3.466   0.000   5.032
 21        1.566   3.466   0.000   5.032
 22        1.566   3.466   0.000   5.032
 23        1.566   3.466   0.000   5.032
 24        1.566   3.466   0.000   5.032
 25        1.566   3.466   0.000   5.032
 26        1.566   3.466   0.000   5.032
 27        1.566   3.466   0.000   5.032
 28        1.566   3.466   0.000   5.032
 29        1.566   3.466   0.000   5.032
 30        1.566   3.466   0.000   5.032
 31        1.566   3.466   0.000   5.032
 32        1.566   3.466   0.000   5.032
 33        1.566   3.466   0.000   5.032
 34        1.566   3.466   0.000   5.032
 35        1.566   3.466   0.000   5.032
 36        1.566   3.466   0.000   5.032
 37        1.566   3.466   0.000   5.032
 38        1.566   3.466   0.000   5.032
 39        1.566   3.466   0.000   5.032
 40        1.566   3.466   0.000   5.032
------------------------------------------------
tot       63.763 180.853  27.102 271.717
 


 magnetization (x)
 
# of ion     s       p       d       tot
----------------------------------------
  1       -0.000  -0.000  -0.000  -0.000
  2        0.000   0.000   0.000   0.000
  3       -0.000  -0.000   0.000  -0.000
  4       -0.000  -0.000  -0.000  -0.000
  5       -0.000  -0.000   0.000  -0.000
  6        0.000   0.000   0.000   0.000
  7       -0.000  -0.000   0.000  -0.000
  8       -0.000  -0.000  -0.000  -0.000
  9       -0.001  -0.001   0.004   0.003
 10        0.001   0.001  -0.004  -0.003
 11        0.000   0.000  -0.001  -0.001
 12       -0.000  -0.000   0.001   0.001
 13       -0.002  -0.002  -0.370  -0.374
 14        0.002   0.002   0.370   0.375
 15        0.008   0.010   1.525   1.543
 16       -0.008  -0.010  -1.525  -1.543
 17        0.000  -0.011   0.000  -0.011
 18        0.000   0.008   0.000   0.008
 19       -0.000   0.043   0.000   0.043
 20        0.000  -0.011   0.000  -0.011
 21       -0.000  -0.008   0.000  -0.008
 22        0.000  -0.010   0.000  -0.010
 23       -0.000   0.011   0.000   0.011
 24        0.000   0.008   0.000   0.008
 25       -0.000   0.010   0.000   0.010
 26       -0.000   0.011   0.000   0.011
 27       -0.000  -0.008   0.000  -0.008
 28        0.000  -0.043   0.000  -0.043
 29       -0.000   0.040   0.000   0.040
 30       -0.000   0.039   0.000   0.039
 31       -0.000   0.043   0.000   0.043
 32       -0.000   0.040   0.000   0.040
 33        0.000  -0.039   0.000  -0.039
 34        0.000  -0.010   0.000  -0.010
 35        0.000  -0.040   0.000  -0.040
 36       -0.000   0.039   0.000   0.039
 37       -0.000   0.010   0.000   0.010
 38        0.000  -0.040   0.000  -0.040
 39        0.000  -0.039   0.000  -0.039
 40        0.000  -0.043   0.000  -0.043
------------------------------------------------
tot        0.000   0.000   0.000   0.000
 


 magnetization (y)
 
# of ion     s       p       d       tot
----------------------------------------
  1        0.000   0.000  -0.000  -0.000
  2       -0.000  -0.000   0.000  -0.000
  3        0.000   0.000  -0.000   0.000
  4        0.000  -0.000   0.000  -0.000
  5       -0.000  -0.000  -0.000  -0.000
  6       -0.000  -0.000   0.000  -0.000
  7        0.000   0.000  -0.000   0.000
  8       -0.000  -0.000  -0.000  -0.000
  9       -0.000  -0.000   0.001   0.001
 10        0.000   0.000  -0.001  -0.001
 11       -0.001  -0.001   0.004   0.003
 12        0.001   0.001  -0.004  -0.003
 13        0.008   0.010   1.525   1.542
 14       -0.008  -0.010  -1.525  -1.542
 15        0.002   0.002   0.368   0.372
 16       -0.002  -0.002  -0.368  -0.372
 17       -0.000   0.039   0.000   0.039
 18        0.000  -0.040   0.000  -0.040
 19       -0.000   0.010   0.000   0.010
 20       -0.000   0.039   0.000   0.039
 21       -0.000   0.040   0.000   0.040
 22       -0.000   0.043   0.000   0.043
 23        0.000  -0.039   0.000  -0.039
 24        0.000  -0.040   0.000  -0.040
 25        0.000  -0.043   0.000  -0.043
 26        0.000  -0.039   0.000  -0.039
 27       -0.000   0.040   0.000   0.040
 28        0.000  -0.010   0.000  -0.010
 29        0.000   0.008   0.000   0.008
 30       -0.000   0.011   0.000   0.011
 31       -0.000   0.010   0.000   0.010
 32        0.000   0.008   0.000   0.008
 33        0.000  -0.011   0.000  -0.011
 34       -0.000   0.043   0.000   0.043
 35       -0.000  -0.008   0.000  -0.008
 36       -0.000   0.011   0.000   0.011
 37        0.000  -0.043   0.000  -0.043
 38       -0.000  -0.008   0.000  -0.008
 39        0.000  -0.011   0.000  -0.011
 40        0.000  -0.010   0.000  -0.010
------------------------------------------------
tot       -0.000  -0.000  -0.000  -0.000
 


 magnetization (z)
 
# of ion     s       p       d       tot
----------------------------------------
  1       -0.000  -0.000   0.000  -0.000
  2       -0.000   0.000  -0.000  -0.000
  3        0.000  -0.000   0.000   0.000
  4        0.000   0.000   0.000   0.000
  5       -0.000  -0.000   0.000  -0.000
  6        0.000  -0.000   0.000   0.000
  7       -0.000   0.000  -0.000  -0.000
  8        0.000  -0.000   0.000   0.000
  9       -0.000  -0.000  -0.000  -0.000
 10        0.000  -0.000  -0.000  -0.000
 11       -0.000   0.000   0.000   0.000
 12       -0.000   0.000   0.000   0.000
 13       -0.000  -0.000  -0.000  -0.000
 14       -0.000  -0.000  -0.000  -0.000
 15        0.000   0.000   0.000   0.000
 16        0.000   0.000   0.000   0.000
 17       -0.000  -0.000   0.000  -0.000
 18       -0.000  -0.000   0.000  -0.000
 19       -0.000   0.000   0.000   0.000
 20       -0.000  -0.000   0.000  -0.000
 21        0.000   0.000   0.000   0.000
 22        0.000  -0.000   0.000  -0.000
 23        0.000   0.000   0.000   0.000
 24       -0.000  -0.000   0.000  -0.000
 25       -0.000  -0.000   0.000  -0.000
 26       -0.000  -0.000   0.000  -0.000
 27        0.000  -0.000   0.000  -0.000
 28       -0.000   0.000   0.000   0.000
 29       -0.000  -0.000   0.000  -0.000
 30       -0.000  -0.000   0.000  -0.000
 31       -0.000   0.000   0.000   0.000
 32       -0.000   0.000   0.000   0.000
 33       -0.000   0.000   0.000   0.000
 34       -0.000  -0.000   0.000  -0.000
 35       -0.000   0.000   0.000   0.000
 36       -0.000  -0.000   0.000  -0.000
 37        0.000  -0.000   0.000  -0.000
 38        0.000   0.000   0.000   0.000
 39       -0.000   0.000   0.000   0.000
 40       -0.000   0.000   0.000   0.000
------------------------------------------------
tot       -0.000  -0.000   0.000  -0.000
 
 BZINTS: Fermi energy:  5.180000;324.000000 electrons
         Band energy:***********;  BLOECHL correction:  0.000000
 BZINTS: Fermi energy:  5.180000;324.000000 electrons
         Band energy:***********;  BLOECHL correction:  0.000000
 BZINTS: Fermi energy:  5.180000;324.000000 electrons
         Band energy:***********;  BLOECHL correction:  0.000000
 BZINTS: Fermi energy:  5.180000;324.000000 electrons
         Band energy:***********;  BLOECHL correction:  0.000000

 total amount of memory used by VASP on root node   492231. kBytes
========================================================================

   base      :      30000. kBytes
   nonlr-proj:       6561. kBytes
   fftplans  :       2897. kBytes
   grid      :      11757. kBytes
   one-center:        248. kBytes
   wavefun   :     440768. kBytes
 
  
  
 General timing and accounting informations for this job:
 ========================================================
  
                  Total CPU time used (sec):    12721.604
                            User time (sec):    12642.543
                          System time (sec):       79.061
                         Elapsed time (sec):    12751.816
  
                   Maximum memory used (kb):     1112236.
                   Average memory used (kb):           0.
  
                          Minor page faults:        57610
                          Major page faults:           13
                 Voluntary context switches:         1316
