64   
1    

1    
  0.0100000000000000   0.0000000000000000   0.0000000000000000
  -0.1321263000    0.0000000000    0.0000000000
   0.0001801000    0.0000000000    0.0000000000
   0.0004810200    0.0000000000    0.0000000000
   0.0000465600    0.0000000000    0.0000000000
   0.0004810200    0.0000000000    0.0000000000
   0.0000465600    0.0000000000    0.0000000000
  -0.0039263700    0.0000000000    0.0000000000
   0.0002251400    0.0000000000    0.0000000000
   0.0002238600    0.0002163100   -0.0002553800
  -0.0005103500    0.0003381200   -0.0004100500
  -0.0000881900    0.0003398100   -0.0003398100
   0.0321811200    0.0223973900   -0.0223973900
  -0.0001782200    0.0002700500   -0.0002700500
   0.0020801200    0.0002522400   -0.0002522400
   0.0002238600    0.0002553800   -0.0002163100
  -0.0005103500    0.0004100500   -0.0003381200
  -0.0042675500    0.0009405500   -0.0009405500
  -0.0000369400    0.0000766300   -0.0000766300
  -0.0042771500    0.0009535500    0.0009535500
  -0.0000401300    0.0000760900    0.0000760900
  -0.0042771500   -0.0009535500   -0.0009535500
  -0.0000401300   -0.0000760900   -0.0000760900
  -0.0042675500   -0.0009405500    0.0009405500
  -0.0000369400   -0.0000766300    0.0000766300
  -0.0000881900   -0.0003398100    0.0003398100
   0.0321811200   -0.0223973900    0.0223973900
   0.0002238600   -0.0002163100    0.0002553800
  -0.0005103500   -0.0003381200    0.0004100500
   0.0002238600   -0.0002553800    0.0002163100
  -0.0005103500   -0.0004100500    0.0003381200
  -0.0001782200   -0.0002700500    0.0002700500
   0.0020801200   -0.0002522400    0.0002522400
   0.0018760800   -0.0009526500   -0.0018655700
   0.0018598500   -0.0009412800    0.0018524400
   0.0003269700   -0.0000765500    0.0006016100
   0.0003265100   -0.0000767400   -0.0006034400
   0.0018760800    0.0009526500    0.0018655700
   0.0018598500    0.0009412800   -0.0018524400
   0.0003269700    0.0000765500   -0.0006016100
   0.0003265100    0.0000767400    0.0006034400
  -0.0005151200   -0.0003426400   -0.0004062200
   0.0002187200   -0.0002126200   -0.0002500600
   0.0324877800   -0.0230024500   -0.0230024500
  -0.0000880100   -0.0003412500   -0.0003412500
   0.0020888800   -0.0002530900   -0.0002530900
  -0.0001786500   -0.0002707600   -0.0002707600
  -0.0005151200   -0.0004062200   -0.0003426400
   0.0002187200   -0.0002500600   -0.0002126200
   0.0018760800    0.0018655700    0.0009526500
   0.0018598500   -0.0018524400    0.0009412800
   0.0018760800   -0.0018655700   -0.0009526500
   0.0018598500    0.0018524400   -0.0009412800
   0.0003269700   -0.0006016100    0.0000765500
   0.0003265100    0.0006034400    0.0000767400
   0.0003269700    0.0006016100   -0.0000765500
   0.0003265100   -0.0006034400   -0.0000767400
   0.0324877800    0.0230024500    0.0230024500
  -0.0000880100    0.0003412500    0.0003412500
  -0.0005151200    0.0003426400    0.0004062200
   0.0002187200    0.0002126200    0.0002500600
  -0.0005151200    0.0004062200    0.0003426400
   0.0002187200    0.0002500600    0.0002126200
   0.0020888800    0.0002530900    0.0002530900
  -0.0001786500    0.0002707600    0.0002707600
