natom:  144
displacements:
- atom:    1
  displacement:
    [   0.0100000000000000,  0.0000000000000000,  0.0000000000000000 ]
- atom:    1
  displacement:
    [  -0.0100000000000000,  0.0000000000000000,  0.0000000000000000 ]
- atom:    1
  displacement:
    [   0.0000000000000000,  0.0000000000000000,  0.0100000000000000 ]
- atom:    1
  displacement:
    [   0.0000000000000000,  0.0000000000000000, -0.0100000000000000 ]
- atom:   25
  displacement:
    [   0.0100000000000000,  0.0000000000000000,  0.0000000000000000 ]
- atom:   25
  displacement:
    [  -0.0100000000000000,  0.0000000000000000,  0.0000000000000000 ]
- atom:   25
  displacement:
    [   0.0000000000000000,  0.0000000000000000,  0.0100000000000000 ]
- atom:   25
  displacement:
    [   0.0000000000000000,  0.0000000000000000, -0.0100000000000000 ]
lattice:
- [     9.7572350799999992,     0.0000000000000000,     0.0000000000000000 ] # a
- [    -4.8786175399999996,     8.4500134599999992,     0.0000000000000000 ] # b
- [     0.0000000000000000,     0.0000000000000000,    12.5104310900000009 ] # c
atoms:
- symbol: B  # 1
  position: [  0.4405210950000000,  0.0594789050000000,  0.1082863700000000 ]
  mass: 10.811000
- symbol: B  # 2
  position: [  0.9405210950000000,  0.0594789050000000,  0.1082863700000000 ]
  mass: 10.811000
- symbol: B  # 3
  position: [  0.4405210950000000,  0.5594789050000000,  0.1082863700000000 ]
  mass: 10.811000
- symbol: B  # 4
  position: [  0.9405210950000000,  0.5594789050000000,  0.1082863700000000 ]
  mass: 10.811000
- symbol: B  # 5
  position: [  0.1189578150000000,  0.0594789050000000,  0.1082863700000000 ]
  mass: 10.811000
- symbol: B  # 6
  position: [  0.6189578150000000,  0.0594789050000000,  0.1082863700000000 ]
  mass: 10.811000
- symbol: B  # 7
  position: [  0.1189578150000000,  0.5594789050000000,  0.1082863700000000 ]
  mass: 10.811000
- symbol: B  # 8
  position: [  0.6189578150000000,  0.5594789050000000,  0.1082863700000000 ]
  mass: 10.811000
- symbol: B  # 9
  position: [  0.4405210950000000,  0.3810421850000000,  0.1082863700000000 ]
  mass: 10.811000
- symbol: B  # 10
  position: [  0.9405210950000000,  0.3810421850000000,  0.1082863700000000 ]
  mass: 10.811000
- symbol: B  # 11
  position: [  0.4405210950000000,  0.8810421850000000,  0.1082863700000000 ]
  mass: 10.811000
- symbol: B  # 12
  position: [  0.9405210950000000,  0.8810421850000000,  0.1082863700000000 ]
  mass: 10.811000
- symbol: B  # 13
  position: [  0.3928122400000000,  0.2856244800000000,  0.2250469600000000 ]
  mass: 10.811000
- symbol: B  # 14
  position: [  0.8928122400000000,  0.2856244800000000,  0.2250469600000000 ]
  mass: 10.811000
- symbol: B  # 15
  position: [  0.3928122400000000,  0.7856244800000001,  0.2250469600000000 ]
  mass: 10.811000
- symbol: B  # 16
  position: [  0.8928122400000000,  0.7856244800000001,  0.2250469600000000 ]
  mass: 10.811000
- symbol: B  # 17
  position: [  0.3928122400000000,  0.1071877600000000,  0.2250469600000000 ]
  mass: 10.811000
- symbol: B  # 18
  position: [  0.8928122400000000,  0.1071877600000000,  0.2250469600000000 ]
  mass: 10.811000
- symbol: B  # 19
  position: [  0.3928122400000000,  0.6071877600000000,  0.2250469600000000 ]
  mass: 10.811000
- symbol: B  # 20
  position: [  0.8928122400000000,  0.6071877600000000,  0.2250469600000000 ]
  mass: 10.811000
- symbol: B  # 21
  position: [  0.2143755200000000,  0.1071877600000000,  0.2250469600000000 ]
  mass: 10.811000
- symbol: B  # 22
  position: [  0.7143755200000000,  0.1071877600000000,  0.2250469600000000 ]
  mass: 10.811000
- symbol: B  # 23
  position: [  0.2143755200000000,  0.6071877600000000,  0.2250469600000000 ]
  mass: 10.811000
- symbol: B  # 24
  position: [  0.7143755200000000,  0.6071877600000000,  0.2250469600000000 ]
  mass: 10.811000
- symbol: B  # 25
  position: [  0.2346476500000000,  0.2653523500000000,  0.3089958100000000 ]
  mass: 10.811000
- symbol: B  # 26
  position: [  0.7346476500000000,  0.2653523500000000,  0.3089958100000000 ]
  mass: 10.811000
- symbol: B  # 27
  position: [  0.2346476500000000,  0.7653523500000000,  0.3089958100000000 ]
  mass: 10.811000
- symbol: B  # 28
  position: [  0.7346476500000000,  0.7653523500000000,  0.3089958100000000 ]
  mass: 10.811000
- symbol: B  # 29
  position: [  0.0307047050000000,  0.2653523500000000,  0.3089958100000000 ]
  mass: 10.811000
- symbol: B  # 30
  position: [  0.5307047050000000,  0.2653523500000000,  0.3089958100000000 ]
  mass: 10.811000
- symbol: B  # 31
  position: [  0.0307047050000000,  0.7653523500000000,  0.3089958100000000 ]
  mass: 10.811000
- symbol: B  # 32
  position: [  0.5307047050000000,  0.7653523500000000,  0.3089958100000000 ]
  mass: 10.811000
- symbol: B  # 33
  position: [  0.2346476500000000,  0.4692952950000000,  0.3089958100000000 ]
  mass: 10.811000
- symbol: B  # 34
  position: [  0.7346476500000000,  0.4692952950000000,  0.3089958100000000 ]
  mass: 10.811000
- symbol: B  # 35
  position: [  0.2346476500000000,  0.9692952950000000,  0.3089958100000000 ]
  mass: 10.811000
- symbol: B  # 36
  position: [  0.7346476500000000,  0.9692952950000000,  0.3089958100000000 ]
  mass: 10.811000
- symbol: B  # 37
  position: [  0.0986856850000000,  0.1973713700000000,  0.0243375300000000 ]
  mass: 10.811000
- symbol: B  # 38
  position: [  0.5986856850000000,  0.1973713700000000,  0.0243375300000000 ]
  mass: 10.811000
- symbol: B  # 39
  position: [  0.0986856850000000,  0.6973713699999999,  0.0243375300000000 ]
  mass: 10.811000
- symbol: B  # 40
  position: [  0.5986856850000000,  0.6973713699999999,  0.0243375300000000 ]
  mass: 10.811000
- symbol: B  # 41
  position: [  0.0986856850000000,  0.4013143150000000,  0.0243375300000000 ]
  mass: 10.811000
- symbol: B  # 42
  position: [  0.5986856850000000,  0.4013143150000000,  0.0243375300000000 ]
  mass: 10.811000
- symbol: B  # 43
  position: [  0.0986856850000000,  0.9013143150000000,  0.0243375300000000 ]
  mass: 10.811000
- symbol: B  # 44
  position: [  0.5986856850000000,  0.9013143150000000,  0.0243375300000000 ]
  mass: 10.811000
- symbol: B  # 45
  position: [  0.3026286300000000,  0.4013143150000000,  0.0243375300000000 ]
  mass: 10.811000
- symbol: B  # 46
  position: [  0.8026286300000001,  0.4013143150000000,  0.0243375300000000 ]
  mass: 10.811000
- symbol: B  # 47
  position: [  0.3026286300000000,  0.9013143150000000,  0.0243375300000000 ]
  mass: 10.811000
- symbol: B  # 48
  position: [  0.8026286300000001,  0.9013143150000000,  0.0243375300000000 ]
  mass: 10.811000
- symbol: B  # 49
  position: [  0.2738544250000000,  0.2261455750000000,  0.4416197100000000 ]
  mass: 10.811000
- symbol: B  # 50
  position: [  0.7738544250000000,  0.2261455750000000,  0.4416197100000000 ]
  mass: 10.811000
- symbol: B  # 51
  position: [  0.2738544250000000,  0.7261455750000000,  0.4416197100000000 ]
  mass: 10.811000
- symbol: B  # 52
  position: [  0.7738544250000000,  0.7261455750000000,  0.4416197100000000 ]
  mass: 10.811000
- symbol: B  # 53
  position: [  0.4522911500000000,  0.2261455750000000,  0.4416197100000000 ]
  mass: 10.811000
- symbol: B  # 54
  position: [  0.9522911500000000,  0.2261455750000000,  0.4416197100000000 ]
  mass: 10.811000
- symbol: B  # 55
  position: [  0.4522911500000000,  0.7261455750000000,  0.4416197100000000 ]
  mass: 10.811000
- symbol: B  # 56
  position: [  0.9522911500000000,  0.7261455750000000,  0.4416197100000000 ]
  mass: 10.811000
- symbol: B  # 57
  position: [  0.2738544250000000,  0.0477088500000000,  0.4416197100000000 ]
  mass: 10.811000
- symbol: B  # 58
  position: [  0.7738544250000000,  0.0477088500000000,  0.4416197100000000 ]
  mass: 10.811000
- symbol: B  # 59
  position: [  0.2738544250000000,  0.5477088500000000,  0.4416197100000000 ]
  mass: 10.811000
- symbol: B  # 60
  position: [  0.7738544250000000,  0.5477088500000000,  0.4416197100000000 ]
  mass: 10.811000
- symbol: B  # 61
  position: [  0.2261455750000000,  0.4522911500000000,  0.5583802900000000 ]
  mass: 10.811000
- symbol: B  # 62
  position: [  0.7261455750000000,  0.4522911500000000,  0.5583802900000000 ]
  mass: 10.811000
- symbol: B  # 63
  position: [  0.2261455750000000,  0.9522911500000000,  0.5583802900000000 ]
  mass: 10.811000
- symbol: B  # 64
  position: [  0.7261455750000000,  0.9522911500000000,  0.5583802900000000 ]
  mass: 10.811000
- symbol: B  # 65
  position: [  0.2261455750000000,  0.2738544250000000,  0.5583802900000000 ]
  mass: 10.811000
- symbol: B  # 66
  position: [  0.7261455750000000,  0.2738544250000000,  0.5583802900000000 ]
  mass: 10.811000
- symbol: B  # 67
  position: [  0.2261455750000000,  0.7738544250000000,  0.5583802900000000 ]
  mass: 10.811000
- symbol: B  # 68
  position: [  0.7261455750000000,  0.7738544250000000,  0.5583802900000000 ]
  mass: 10.811000
- symbol: B  # 69
  position: [  0.0477088500000000,  0.2738544250000000,  0.5583802900000000 ]
  mass: 10.811000
- symbol: B  # 70
  position: [  0.5477088500000000,  0.2738544250000000,  0.5583802900000000 ]
  mass: 10.811000
- symbol: B  # 71
  position: [  0.0477088500000000,  0.7738544250000000,  0.5583802900000000 ]
  mass: 10.811000
- symbol: B  # 72
  position: [  0.5477088500000000,  0.7738544250000000,  0.5583802900000000 ]
  mass: 10.811000
- symbol: B  # 73
  position: [  0.0679809800000000,  0.4320190200000000,  0.6423291400000000 ]
  mass: 10.811000
- symbol: B  # 74
  position: [  0.5679809800000000,  0.4320190200000000,  0.6423291400000000 ]
  mass: 10.811000
- symbol: B  # 75
  position: [  0.0679809800000000,  0.9320190200000000,  0.6423291400000000 ]
  mass: 10.811000
- symbol: B  # 76
  position: [  0.5679809800000000,  0.9320190200000000,  0.6423291400000000 ]
  mass: 10.811000
- symbol: B  # 77
  position: [  0.3640380350000000,  0.4320190200000000,  0.6423291400000000 ]
  mass: 10.811000
- symbol: B  # 78
  position: [  0.8640380350000000,  0.4320190200000000,  0.6423291400000000 ]
  mass: 10.811000
- symbol: B  # 79
  position: [  0.3640380350000000,  0.9320190200000000,  0.6423291400000000 ]
  mass: 10.811000
- symbol: B  # 80
  position: [  0.8640380350000000,  0.9320190200000000,  0.6423291400000000 ]
  mass: 10.811000
- symbol: B  # 81
  position: [  0.0679809800000000,  0.1359619650000000,  0.6423291400000000 ]
  mass: 10.811000
- symbol: B  # 82
  position: [  0.5679809800000000,  0.1359619650000000,  0.6423291400000000 ]
  mass: 10.811000
- symbol: B  # 83
  position: [  0.0679809800000000,  0.6359619650000000,  0.6423291400000000 ]
  mass: 10.811000
- symbol: B  # 84
  position: [  0.5679809800000000,  0.6359619650000000,  0.6423291400000000 ]
  mass: 10.811000
- symbol: B  # 85
  position: [  0.4320190200000000,  0.3640380350000000,  0.3576708600000000 ]
  mass: 10.811000
- symbol: B  # 86
  position: [  0.9320190200000000,  0.3640380350000000,  0.3576708600000000 ]
  mass: 10.811000
- symbol: B  # 87
  position: [  0.4320190200000000,  0.8640380350000000,  0.3576708600000000 ]
  mass: 10.811000
- symbol: B  # 88
  position: [  0.9320190200000000,  0.8640380350000000,  0.3576708600000000 ]
  mass: 10.811000
- symbol: B  # 89
  position: [  0.4320190200000000,  0.0679809800000000,  0.3576708600000000 ]
  mass: 10.811000
- symbol: B  # 90
  position: [  0.9320190200000000,  0.0679809800000000,  0.3576708600000000 ]
  mass: 10.811000
- symbol: B  # 91
  position: [  0.4320190200000000,  0.5679809800000000,  0.3576708600000000 ]
  mass: 10.811000
- symbol: B  # 92
  position: [  0.9320190200000000,  0.5679809800000000,  0.3576708600000000 ]
  mass: 10.811000
- symbol: B  # 93
  position: [  0.1359619650000000,  0.0679809800000000,  0.3576708600000000 ]
  mass: 10.811000
- symbol: B  # 94
  position: [  0.6359619650000000,  0.0679809800000000,  0.3576708600000000 ]
  mass: 10.811000
- symbol: B  # 95
  position: [  0.1359619650000000,  0.5679809800000000,  0.3576708600000000 ]
  mass: 10.811000
- symbol: B  # 96
  position: [  0.6359619650000000,  0.5679809800000000,  0.3576708600000000 ]
  mass: 10.811000
- symbol: B  # 97
  position: [  0.1071877600000000,  0.3928122400000000,  0.7749530400000000 ]
  mass: 10.811000
- symbol: B  # 98
  position: [  0.6071877600000000,  0.3928122400000000,  0.7749530400000000 ]
  mass: 10.811000
- symbol: B  # 99
  position: [  0.1071877600000000,  0.8928122400000000,  0.7749530400000000 ]
  mass: 10.811000
- symbol: B  # 100
  position: [  0.6071877600000000,  0.8928122400000000,  0.7749530400000000 ]
  mass: 10.811000
- symbol: B  # 101
  position: [  0.2856244800000000,  0.3928122400000000,  0.7749530400000000 ]
  mass: 10.811000
- symbol: B  # 102
  position: [  0.7856244800000001,  0.3928122400000000,  0.7749530400000000 ]
  mass: 10.811000
- symbol: B  # 103
  position: [  0.2856244800000000,  0.8928122400000000,  0.7749530400000000 ]
  mass: 10.811000
- symbol: B  # 104
  position: [  0.7856244800000001,  0.8928122400000000,  0.7749530400000000 ]
  mass: 10.811000
- symbol: B  # 105
  position: [  0.1071877600000000,  0.2143755200000000,  0.7749530400000000 ]
  mass: 10.811000
- symbol: B  # 106
  position: [  0.6071877600000000,  0.2143755200000000,  0.7749530400000000 ]
  mass: 10.811000
- symbol: B  # 107
  position: [  0.1071877600000000,  0.7143755200000000,  0.7749530400000000 ]
  mass: 10.811000
- symbol: B  # 108
  position: [  0.6071877600000000,  0.7143755200000000,  0.7749530400000000 ]
  mass: 10.811000
- symbol: B  # 109
  position: [  0.0594789050000000,  0.1189578150000000,  0.8917136300000000 ]
  mass: 10.811000
- symbol: B  # 110
  position: [  0.5594789050000000,  0.1189578150000000,  0.8917136300000000 ]
  mass: 10.811000
- symbol: B  # 111
  position: [  0.0594789050000000,  0.6189578150000000,  0.8917136300000000 ]
  mass: 10.811000
- symbol: B  # 112
  position: [  0.5594789050000000,  0.6189578150000000,  0.8917136300000000 ]
  mass: 10.811000
- symbol: B  # 113
  position: [  0.0594789050000000,  0.4405210950000000,  0.8917136300000000 ]
  mass: 10.811000
- symbol: B  # 114
  position: [  0.5594789050000000,  0.4405210950000000,  0.8917136300000000 ]
  mass: 10.811000
- symbol: B  # 115
  position: [  0.0594789050000000,  0.9405210950000000,  0.8917136300000000 ]
  mass: 10.811000
- symbol: B  # 116
  position: [  0.5594789050000000,  0.9405210950000000,  0.8917136300000000 ]
  mass: 10.811000
- symbol: B  # 117
  position: [  0.3810421850000000,  0.4405210950000000,  0.8917136300000000 ]
  mass: 10.811000
- symbol: B  # 118
  position: [  0.8810421850000000,  0.4405210950000000,  0.8917136300000000 ]
  mass: 10.811000
- symbol: B  # 119
  position: [  0.3810421850000000,  0.9405210950000000,  0.8917136300000000 ]
  mass: 10.811000
- symbol: B  # 120
  position: [  0.8810421850000000,  0.9405210950000000,  0.8917136300000000 ]
  mass: 10.811000
- symbol: B  # 121
  position: [  0.4013143150000000,  0.0986856850000000,  0.9756624699999999 ]
  mass: 10.811000
- symbol: B  # 122
  position: [  0.9013143150000000,  0.0986856850000000,  0.9756624699999999 ]
  mass: 10.811000
- symbol: B  # 123
  position: [  0.4013143150000000,  0.5986856850000000,  0.9756624699999999 ]
  mass: 10.811000
- symbol: B  # 124
  position: [  0.9013143150000000,  0.5986856850000000,  0.9756624699999999 ]
  mass: 10.811000
- symbol: B  # 125
  position: [  0.1973713700000000,  0.0986856850000000,  0.9756624699999999 ]
  mass: 10.811000
- symbol: B  # 126
  position: [  0.6973713699999999,  0.0986856850000000,  0.9756624699999999 ]
  mass: 10.811000
- symbol: B  # 127
  position: [  0.1973713700000000,  0.5986856850000000,  0.9756624699999999 ]
  mass: 10.811000
- symbol: B  # 128
  position: [  0.6973713699999999,  0.5986856850000000,  0.9756624699999999 ]
  mass: 10.811000
- symbol: B  # 129
  position: [  0.4013143150000000,  0.3026286300000000,  0.9756624699999999 ]
  mass: 10.811000
- symbol: B  # 130
  position: [  0.9013143150000000,  0.3026286300000000,  0.9756624699999999 ]
  mass: 10.811000
- symbol: B  # 131
  position: [  0.4013143150000000,  0.8026286300000001,  0.9756624699999999 ]
  mass: 10.811000
- symbol: B  # 132
  position: [  0.9013143150000000,  0.8026286300000001,  0.9756624699999999 ]
  mass: 10.811000
- symbol: B  # 133
  position: [  0.2653523500000000,  0.0307047050000000,  0.6910041900000000 ]
  mass: 10.811000
- symbol: B  # 134
  position: [  0.7653523500000000,  0.0307047050000000,  0.6910041900000000 ]
  mass: 10.811000
- symbol: B  # 135
  position: [  0.2653523500000000,  0.5307047050000000,  0.6910041900000000 ]
  mass: 10.811000
- symbol: B  # 136
  position: [  0.7653523500000000,  0.5307047050000000,  0.6910041900000000 ]
  mass: 10.811000
- symbol: B  # 137
  position: [  0.2653523500000000,  0.2346476500000000,  0.6910041900000000 ]
  mass: 10.811000
- symbol: B  # 138
  position: [  0.7653523500000000,  0.2346476500000000,  0.6910041900000000 ]
  mass: 10.811000
- symbol: B  # 139
  position: [  0.2653523500000000,  0.7346476500000000,  0.6910041900000000 ]
  mass: 10.811000
- symbol: B  # 140
  position: [  0.7653523500000000,  0.7346476500000000,  0.6910041900000000 ]
  mass: 10.811000
- symbol: B  # 141
  position: [  0.4692952950000000,  0.2346476500000000,  0.6910041900000000 ]
  mass: 10.811000
- symbol: B  # 142
  position: [  0.9692952950000000,  0.2346476500000000,  0.6910041900000000 ]
  mass: 10.811000
- symbol: B  # 143
  position: [  0.4692952950000000,  0.7346476500000000,  0.6910041900000000 ]
  mass: 10.811000
- symbol: B  # 144
  position: [  0.9692952950000000,  0.7346476500000000,  0.6910041900000000 ]
  mass: 10.811000